<?xml version="1.0" encoding="UTF-8"?>
<VTKFile type="UnstructuredGrid" version="1.0" byte_order="LittleEndian">
<UnstructuredGrid>
  <Piece NumberOfPoints="1555" NumberOfCells="1555">
      <PointData>
        <DataArray type="Int32" Name="Type" format="ascii">
 1 1 1 1 1 1 1 1 1 1
 1 1 1 1 1 1 1 1 1 1
 1 1 1 1 1 1 1 1 1 1
 1 1 1 1 1 1 1 1 1 1
 1 1 1 1 1 1 1 1 1 1
 1 1 1 1 1 1 1 1 1 1
 1 3 3 3 3 3 3 3 3 3
 3 3 3 3 3 3 3 3 3 3
 3 3 3 3 3 3 3 3 3 3
 3 3 3 3 3 3 3 3 3 3
 3 3 3 3 3 3 3 3 3 3
 3 3 3 3 3 3 3 3 3 3
 3 3 3 3 3 3 3 3 3 3
 1 1 1 1 1 1 1 1 1 1
 1 1 1 1 1 1 1 1 1 1
 1 1 1 1 1 1 1 1 1 1
 1 1 1 1 1 1 1 1 1 1
 1 1 1 1 1 1 1 1 1 1
 1 1 1 1 1 1 1 1 1 1
 1 2 2 2 2 2 2 2 2 2
 2 2 2 2 2 2 2 2 2 2
 2 2 2 2 2 2 2 2 2 2
 2 2 2 2 2 2 2 2 2 2
 2 2 2 2 2 2 2 2 2 2
 2 2 2 2 2 2 2 2 2 2
 2 2 2 2 2 2 2 2 2 2
 2 2 2 2 2 2 2 2 2 2
 2 2 2 2 2 2 2 2 2 2
 2 2 2 2 2 2 2 2 2 2
 2 2 2 2 2 2 2 2 2 2
 2 2 2 2 2 2 2 2 2 2
 2 2 2 2 2 2 2 2 2 2
 2 2 2 2 2 2 2 2 2 2
 2 2 2 2 2 2 2 2 2 2
 2 2 2 2 2 2 2 2 2 2
 2 2 2 2 2 2 2 2 2 2
 2 2 2 2 2 2 2 2 2 2
 2 2 2 2 2 2 2 2 2 2
 2 2 2 2 2 2 2 2 2 2
 2 2 2 2 2 2 2 2 2 2
 2 2 2 2 2 2 2 2 2 2
 2 2 2 2 2 2 2 2 2 2
 2 2 2 2 2 2 2 2 2 2
 2 2 2 2 2 2 2 2 2 2
 2 2 2 2 2 2 2 2 2 2
 2 2 2 2 2 2 2 2 2 2
 2 2 2 2 2 2 2 2 2 2
 2 2 2 2 2 2 2 2 2 2
 2 2 2 2 2 2 2 2 2 2
 2 2 2 2 2 2 2 2 2 2
 2 2 2 2 2 2 2 2 2 2
 2 2 2 2 2 2 2 2 2 2
 2 2 2 2 2 2 2 2 2 2
 2 2 2 2 2 2 2 2 2 2
 2 2 2 2 2 2 2 2 2 2
 2 2 2 2 2 2 2 2 2 2
 2 2 2 2 2 2 2 2 2 2
 2 2 2 2 2 2 2 2 2 2
 2 2 2 2 2 2 2 2 2 2
 2 2 2 2 2 2 2 2 2 2
 2 2 2 2 2 2 2 2 2 2
 2 2 2 2 2 2 2 2 2 2
 2 2 2 2 2 2 2 2 2 2
 2 2 2 2 2 2 2 2 2 2
 2 2 2 2 2 2 2 2 2 2
 2 2 2 2 2 2 2 2 2 2
 2 2 2 2 2 2 2 2 2 2
 2 2 2 2 2 2 2 2 2 2
 2 2 2 2 2 2 2 2 2 2
 2 2 2 2 2 2 2 2 2 2
 2 2 2 2 2 2 2 2 2 2
 2 2 2 2 2 2 2 2 2 2
 2 2 2 2 2 2 2 2 2 2
 2 2 2 2 2 2 2 2 2 2
 2 2 2 2 2 2 2 2 2 2
 2 2 2 2 2 2 2 2 2 2
 2 2 2 2 2 2 2 2 2 2
 2 2 2 2 2 2 2 2 2 2
 2 2 2 2 2 2 2 2 2 2
 2 0 0 0 0 0 0 0 0 0
 0 0 0 0 0 0 0 0 0 0
 0 0 0 0 0 0 0 0 0 0
 0 0 0 0 0 0 0 0 0 0
 0 0 0 0 0 0 0 0 0 0
 0 0 0 0 0 0 0 0 0 0
 0 0 0 0 0 0 0 0 0 0
 0 0 0 0 0 0 0 0 0 0
 0 0 0 0 0 0 0 0 0 0
 0 0 0 0 0 0 0 0 0 0
 0 0 0 0 0 0 0 0 0 0
 0 0 0 0 0 0 0 0 0 0
 0 0 0 0 0 0 0 0 0 0
 0 0 0 0 0 0 0 0 0 0
 0 0 0 0 0 0 0 0 0 0
 0 0 0 0 0 0 0 0 0 0
 0 0 0 0 0 0 0 0 0 0
 0 0 0 0 0 0 0 0 0 0
 0 0 0 0 0 0 0 0 0 0
 0 0 0 0 0 0 0 0 0 0
 0 0 0 0 0 0 0 0 0 0
 0 0 0 0 0 0 0 0 0 0
 0 0 0 0 0 0 0 0 0 0
 0 0 0 0 0 0 0 0 0 0
 0 0 0 0 0 0 0 0 0 0
 0 0 0 0 0 0 0 0 0 0
 0 0 0 0 0 0 0 0 0 0
 0 0 0 0 0 0 0 0 0 0
 0 0 0 0 0 0 0 0 0 0
 0 0 0 0 0 0 0 0 0 0
 0 0 0 0 0 0 0 0 0 0
 0 0 0 0 0 0 0 0 0 0
 0 0 0 0 0 0 0 0 0 0
 0 0 0 0 0 0 0 0 0 0
 0 0 0 0 0 0 0 0 0 0
 0 0 0 0 0 0 0 0 0 0
 0 0 0 0 0 0 0 0 0 0
 0 0 0 0 0 0 0 0 0 0
 0 0 0 0 0 0 0 0 0 0
 0 0 0 0 0 0 0 0 0 0
 0 0 0 0 0 0 0 0 0 0
 0 0 0 0 0 0 0 0 0 0
 0 0 0 0 0 0 0 0 0 0
 0 0 0 0 0 0 0 0 0 0
 0 0 0 0 0 0 0 0 0 0
 0 0 0 0 0 0 0 0 0 0
 0 0 0 0 0 0 0 0 0 0
 0 0 0 0 0 0 0 0 0 0
 0 0 0 0 0 0 0 0 0 0
 0 0 0 0 0 0 0 0 0 0
 0 0 0 0 0 0 0 0 0 0
 0 0 0 0 0 0 0 0 0 0
 0 0 0 0 0 0 0 0 0 0
 0 0 0 0 0 0 0 0 0 0
 0 0 0 0 0 0 0 0 0 0
 0 0 0 0 0 0 0 0 0 0
 0 0 0 0 0 0 0 0 0 0
 0 0 0 0 0 0 0 0 0 0
 0 0 0 0 0 0 0 0 0 0
 0 0 0 0 0 0 0 0 0 0
 0 0 0 0 0 0 0 0 0 0
 0 0 0 0 0 0 0 0 0 0
 0 0 0 0 0 0 0 0 0 0
 0 0 0 0 0 0 0 0 0 0
 0 0 0 0 0 0 0 0 0 0
 0 0 0 0 0 0 0 0 0 0
 0 0 0 0 0 0 0 0 0 0
 0 0 0 0 0 0 0 0 0 0
 0 0 0 0 0 0 0 0 0 0
 0 0 0 0 0 0 0 0 0 0
 0 0 0 0 0 0 0 0 0 0
 0 0 0 0 0 0 0 0 0 0
 0 0 0 0 0 0 0 0 0 0
 0 0 0 0 0 0 0 0 0 0
 0 0 0 0 0 0 0 0 0 0
 0 0 0 0 0 0 0 0 0 0
 0 0 0 0 0
        </DataArray>
      </PointData>
      <Points>
        <DataArray type="Float32" NumberOfComponents="3" format="ascii">
  0.000000  0.500000  0.000000
  0.000000  0.490000  0.000000
  0.000000  0.480000  0.000000
  0.000000  0.470000  0.000000
  0.000000  0.460000  0.000000
  0.000000  0.450000  0.000000
  0.000000  0.440000  0.000000
  0.000000  0.430000  0.000000
  0.000000  0.420000  0.000000
  0.000000  0.410000  0.000000
  0.000000  0.400000  0.000000
  0.000000  0.390000  0.000000
  0.000000  0.380000  0.000000
  0.000000  0.370000  0.000000
  0.000000  0.360000  0.000000
  0.000000  0.350000  0.000000
  0.000000  0.340000  0.000000
  0.000000  0.330000  0.000000
  0.000000  0.320000  0.000000
  0.000000  0.310000  0.000000
  0.000000  0.300000  0.000000
  0.000000  0.290000  0.000000
  0.000000  0.280000  0.000000
  0.000000  0.270000  0.000000
  0.000000  0.260000  0.000000
  0.000000  0.250000  0.000000
  0.000000  0.240000  0.000000
  0.000000  0.230000  0.000000
  0.000000  0.220000  0.000000
  0.000000  0.210000  0.000000
  0.000000  0.200000  0.000000
  0.000000  0.190000  0.000000
  0.000000  0.180000  0.000000
  0.000000  0.170000  0.000000
  0.000000  0.160000  0.000000
  0.000000  0.150000  0.000000
  0.000000  0.140000  0.000000
  0.000000  0.130000  0.000000
  0.000000  0.120000  0.000000
  0.000000  0.110000  0.000000
  0.000000  0.100000  0.000000
  0.000000  0.090000  0.000000
  0.000000  0.080000  0.000000
  0.000000  0.070000  0.000000
  0.000000  0.060000  0.000000
  0.000000  0.050000  0.000000
  0.000000  0.040000  0.000000
  0.000000  0.030000  0.000000
  0.000000  0.020000  0.000000
  0.000000  0.010000  0.000000
 -0.100000  0.000000  0.000000
 -0.090000  0.000000  0.000000
 -0.080000  0.000000  0.000000
 -0.070000  0.000000  0.000000
 -0.060000  0.000000  0.000000
 -0.050000  0.000000  0.000000
 -0.040000  0.000000  0.000000
 -0.030000  0.000000  0.000000
 -0.020000  0.000000  0.000000
 -0.010000  0.000000  0.000000
 -0.000000  0.000000  0.000000
  0.010000  0.000000  0.000000
  0.020000  0.000000  0.000000
  0.030000  0.000000  0.000000
  0.040000  0.000000  0.000000
  0.050000  0.000000  0.000000
  0.060000  0.000000  0.000000
  0.070000  0.000000  0.000000
  0.080000  0.000000  0.000000
  0.090000  0.000000  0.000000
  0.100000  0.000000  0.000000
  0.110000  0.000000  0.000000
  0.120000  0.000000  0.000000
  0.130000  0.000000  0.000000
  0.140000  0.000000  0.000000
  0.150000  0.000000  0.000000
  0.160000  0.000000  0.000000
  0.170000  0.000000  0.000000
  0.180000  0.000000  0.000000
  0.190000  0.000000  0.000000
  0.200000  0.000000  0.000000
  0.210000  0.000000  0.000000
  0.220000  0.000000  0.000000
  0.230000  0.000000  0.000000
  0.240000  0.000000  0.000000
  0.250000  0.000000  0.000000
  0.260000  0.000000  0.000000
  0.270000  0.000000  0.000000
  0.280000  0.000000  0.000000
  0.290000  0.000000  0.000000
  0.300000  0.000000  0.000000
  0.310000  0.000000  0.000000
  0.320000  0.000000  0.000000
  0.330000  0.000000  0.000000
  0.340000  0.000000  0.000000
  0.350000  0.000000  0.000000
  0.360000  0.000000  0.000000
  0.370000  0.000000  0.000000
  0.380000  0.000000  0.000000
  0.390000  0.000000  0.000000
  0.400000  0.000000  0.000000
  0.410000  0.000000  0.000000
  0.420000  0.000000  0.000000
  0.430000  0.000000  0.000000
  0.440000  0.000000  0.000000
  0.450000  0.000000  0.000000
  0.460000  0.000000  0.000000
  0.470000  0.000000  0.000000
  0.480000  0.000000  0.000000
  0.490000  0.000000  0.000000
  0.500000  0.000000  0.000000
  0.510000  0.000000  0.000000
  0.520000  0.000000  0.000000
  0.530000  0.000000  0.000000
  0.540000  0.000000  0.000000
  0.550000  0.000000  0.000000
  0.560000  0.000000  0.000000
  0.570000  0.000000  0.000000
  0.580000  0.000000  0.000000
  0.590000  0.000000  0.000000
  0.600000  0.000000  0.000000
  0.610000  0.000000  0.000000
  0.620000  0.000000  0.000000
  0.630000  0.000000  0.000000
  0.640000  0.000000  0.000000
  0.650000  0.000000  0.000000
  0.660000  0.000000  0.000000
  0.670000  0.000000  0.000000
  0.680000  0.000000  0.000000
  0.690000  0.000000  0.000000
  0.700000  0.000000  0.000000
  0.710000  0.000000  0.000000
  0.720000  0.000000  0.000000
  0.730000  0.000000  0.000000
  0.740000  0.000000  0.000000
  0.750000  0.000000  0.000000
  0.760000  0.000000  0.000000
  0.770000  0.000000  0.000000
  0.780000  0.000000  0.000000
  0.790000  0.000000  0.000000
  0.800000  0.000000  0.000000
  0.700000  0.010000  0.000000
  0.700000  0.020000  0.000000
  0.700000  0.030000  0.000000
  0.700000  0.040000  0.000000
  0.700000  0.050000  0.000000
  0.700000  0.060000  0.000000
  0.700000  0.070000  0.000000
  0.700000  0.080000  0.000000
  0.700000  0.090000  0.000000
  0.700000  0.100000  0.000000
  0.700000  0.110000  0.000000
  0.700000  0.120000  0.000000
  0.700000  0.130000  0.000000
  0.700000  0.140000  0.000000
  0.700000  0.150000  0.000000
  0.700000  0.160000  0.000000
  0.700000  0.170000  0.000000
  0.700000  0.180000  0.000000
  0.700000  0.190000  0.000000
  0.700000  0.200000  0.000000
  0.700000  0.210000  0.000000
  0.700000  0.220000  0.000000
  0.700000  0.230000  0.000000
  0.700000  0.240000  0.000000
  0.700000  0.250000  0.000000
  0.700000  0.260000  0.000000
  0.700000  0.270000  0.000000
  0.700000  0.280000  0.000000
  0.700000  0.290000  0.000000
  0.700000  0.300000  0.000000
  0.700000  0.310000  0.000000
  0.700000  0.320000  0.000000
  0.700000  0.330000  0.000000
  0.700000  0.340000  0.000000
  0.700000  0.350000  0.000000
  0.700000  0.360000  0.000000
  0.700000  0.370000  0.000000
  0.700000  0.380000  0.000000
  0.700000  0.390000  0.000000
  0.700000  0.400000  0.000000
  0.700000  0.410000  0.000000
  0.700000  0.420000  0.000000
  0.700000  0.430000  0.000000
  0.700000  0.440000  0.000000
  0.700000  0.450000  0.000000
  0.700000  0.460000  0.000000
  0.700000  0.470000  0.000000
  0.700000  0.480000  0.000000
  0.700000  0.490000  0.000000
  0.700000  0.500000  0.000000
  0.012241  0.009310  0.000000
  0.022587  0.015513  0.000000
  0.030901  0.017428  0.000000
  0.009742  0.015917  0.000000
  0.017634  0.027338  0.000000
  0.010476  0.026520  0.000000
  0.028497  0.026467  0.000000
  0.031488  0.034168  0.000000
  0.041149  0.034893  0.000000
  0.020907  0.036127  0.000000
  0.031201  0.043720  0.000000
  0.008538  0.037556  0.000000
  0.012219  0.047339  0.000000
  0.008414  0.056993  0.000000
  0.009546  0.070465  0.000000
  0.017935  0.073219  0.000000
  0.023367  0.079820  0.000000
  0.010314  0.080439  0.000000
  0.019017  0.093243  0.000000
  0.008630  0.091067  0.000000
  0.013486  0.102129  0.000000
  0.009598  0.106516  0.000000
  0.010273  0.118342  0.000000
  0.012203  0.123657  0.000000
  0.009902  0.133288  0.000000
  0.015801  0.140065  0.000000
  0.010778  0.143471  0.000000
  0.020179  0.153099  0.000000
  0.007345  0.155688  0.000000
  0.023356  0.154973  0.000000
  0.042146  0.008847  0.000000
  0.026617  0.008444  0.000000
  0.049296  0.010846  0.000000
  0.040992  0.019954  0.000000
  0.056496  0.016562  0.000000
  0.055628  0.029842  0.000000
  0.072266  0.025722  0.000000
  0.044374  0.024257  0.000000
  0.048813  0.049042  0.000000
  0.044558  0.043041  0.000000
  0.036922  0.053993  0.000000
  0.018826  0.045783  0.000000
  0.040401  0.060482  0.000000
  0.029151  0.051292  0.000000
  0.048683  0.065996  0.000000
  0.017328  0.061061  0.000000
  0.021977  0.059635  0.000000
  0.031035  0.071491  0.000000
  0.038197  0.082266  0.000000
  0.021574  0.087695  0.000000
  0.033654  0.098880  0.000000
  0.029619  0.101080  0.000000
  0.021948  0.108731  0.000000
  0.030039  0.111957  0.000000
  0.022872  0.119166  0.000000
  0.028694  0.125187  0.000000
  0.024933  0.130310  0.000000
  0.029454  0.137495  0.000000
  0.028536  0.142960  0.000000
  0.030533  0.156655  0.000000
  0.081620  0.009513  0.000000
  0.064717  0.008127  0.000000
  0.069956  0.013678  0.000000
  0.060766  0.021323  0.000000
  0.078300  0.024403  0.000000
  0.091586  0.024539  0.000000
  0.107952  0.025723  0.000000
  0.081217  0.035645  0.000000
  0.080017  0.046374  0.000000
  0.051489  0.034456  0.000000
  0.065070  0.047168  0.000000
  0.066013  0.039130  0.000000
  0.053974  0.059883  0.000000
  0.054845  0.074383  0.000000
  0.068660  0.073307  0.000000
  0.032612  0.067016  0.000000
  0.055450  0.081155  0.000000
  0.042826  0.074553  0.000000
  0.046074  0.086970  0.000000
  0.034265  0.087870  0.000000
  0.047905  0.095823  0.000000
  0.046126  0.100182  0.000000
  0.044555  0.109367  0.000000
  0.039356  0.113855  0.000000
  0.045856  0.120732  0.000000
  0.043375  0.126763  0.000000
  0.042873  0.133471  0.000000
  0.043216  0.139922  0.000000
  0.041509  0.148608  0.000000
  0.038318  0.153078  0.000000
  0.107696  0.009012  0.000000
  0.094280  0.009512  0.000000
  0.108201  0.020854  0.000000
  0.081617  0.015115  0.000000
  0.110871  0.037250  0.000000
  0.098412  0.014433  0.000000
  0.099653  0.036002  0.000000
  0.094382  0.026071  0.000000
  0.088007  0.048886  0.000000
  0.066671  0.033757  0.000000
  0.099956  0.049709  0.000000
  0.068071  0.054440  0.000000
  0.090036  0.058016  0.000000
  0.056275  0.049205  0.000000
  0.061245  0.064753  0.000000
  0.077385  0.055229  0.000000
  0.070790  0.065212  0.000000
  0.075766  0.078601  0.000000
  0.065957  0.083487  0.000000
  0.060395  0.089750  0.000000
  0.068545  0.097961  0.000000
  0.061062  0.098587  0.000000
  0.056477  0.110929  0.000000
  0.062381  0.108509  0.000000
  0.059458  0.118756  0.000000
  0.058088  0.125427  0.000000
  0.059248  0.132624  0.000000
  0.056594  0.139849  0.000000
  0.053916  0.148174  0.000000
  0.055987  0.154003  0.000000
  0.132805  0.008626  0.000000
  0.118235  0.010315  0.000000
  0.131890  0.017144  0.000000
  0.120525  0.015658  0.000000
  0.142644  0.020222  0.000000
  0.121701  0.024997  0.000000
  0.117970  0.032489  0.000000
  0.131092  0.033853  0.000000
  0.085269  0.037348  0.000000
  0.122196  0.044589  0.000000
  0.099160  0.041120  0.000000
  0.117466  0.044673  0.000000
  0.108490  0.052218  0.000000
  0.097670  0.061219  0.000000
  0.105506  0.068901  0.000000
  0.081434  0.064448  0.000000
  0.093137  0.070358  0.000000
  0.084887  0.072304  0.000000
  0.090322  0.088853  0.000000
  0.081684  0.084343  0.000000
  0.076986  0.091988  0.000000
  0.082719  0.098016  0.000000
  0.078546  0.105357  0.000000
  0.074470  0.110813  0.000000
  0.076937  0.116502  0.000000
  0.073852  0.124877  0.000000
  0.071652  0.128929  0.000000
  0.070467  0.138528  0.000000
  0.068809  0.145287  0.000000
  0.064859  0.150823  0.000000
  0.154086  0.008626  0.000000
  0.142962  0.010354  0.000000
  0.162586  0.022660  0.000000
  0.149381  0.020940  0.000000
  0.183985  0.016620  0.000000
  0.156753  0.030286  0.000000
  0.175307  0.019176  0.000000
  0.132848  0.027607  0.000000
  0.144648  0.030887  0.000000
  0.155176  0.040139  0.000000
  0.142781  0.047947  0.000000
  0.145270  0.038807  0.000000
  0.134028  0.041878  0.000000
  0.120328  0.059898  0.000000
  0.109241  0.058479  0.000000
  0.116620  0.069866  0.000000
  0.104430  0.076873  0.000000
  0.118284  0.075569  0.000000
  0.094547  0.080089  0.000000
  0.108129  0.085080  0.000000
  0.098556  0.092064  0.000000
  0.100297  0.098675  0.000000
  0.093126  0.102481  0.000000
  0.094705  0.109797  0.000000
  0.093145  0.116728  0.000000
  0.088757  0.121899  0.000000
  0.086654  0.128775  0.000000
  0.085717  0.136010  0.000000
  0.081269  0.144705  0.000000
  0.083023  0.149151  0.000000
  0.195982  0.008998  0.000000
  0.168367  0.010771  0.000000
  0.179553  0.007867  0.000000
  0.161099  0.013531  0.000000
  0.213654  0.026591  0.000000
  0.192669  0.015800  0.000000
  0.193031  0.026690  0.000000
  0.177696  0.026522  0.000000
  0.165709  0.030363  0.000000
  0.174582  0.039150  0.000000
  0.165145  0.041565  0.000000
  0.172133  0.052261  0.000000
  0.153173  0.053362  0.000000
  0.132057  0.051345  0.000000
  0.138275  0.057884  0.000000
  0.125386  0.059302  0.000000
  0.133016  0.068277  0.000000
  0.131222  0.074039  0.000000
  0.128113  0.081043  0.000000
  0.114049  0.086398  0.000000
  0.123473  0.092393  0.000000
  0.115162  0.096698  0.000000
  0.112676  0.103787  0.000000
  0.113275  0.109023  0.000000
  0.106288  0.114021  0.000000
  0.106069  0.121975  0.000000
  0.102872  0.127475  0.000000
  0.099316  0.134145  0.000000
  0.096526  0.142120  0.000000
  0.093053  0.146978  0.000000
  0.216863  0.010651  0.000000
  0.204326  0.013982  0.000000
  0.245595  0.019417  0.000000
  0.213372  0.015745  0.000000
  0.249630  0.027686  0.000000
  0.225505  0.011950  0.000000
  0.229007  0.026315  0.000000
  0.203142  0.023895  0.000000
  0.217629  0.031453  0.000000
  0.205383  0.034316  0.000000
  0.193900  0.032228  0.000000
  0.179938  0.033776  0.000000
  0.181388  0.045707  0.000000
  0.157110  0.049594  0.000000
  0.163360  0.062783  0.000000
  0.152959  0.063798  0.000000
  0.144126  0.062655  0.000000
  0.158700  0.069999  0.000000
  0.144055  0.075209  0.000000
  0.149125  0.078379  0.000000
  0.140474  0.086360  0.000000
  0.132676  0.089464  0.000000
  0.134993  0.099553  0.000000
  0.128602  0.101278  0.000000
  0.128221  0.110766  0.000000
  0.123999  0.116501  0.000000
  0.119171  0.122297  0.000000
  0.115494  0.130774  0.000000
  0.111449  0.140472  0.000000
  0.108733  0.144680  0.000000
  0.252990  0.011976  0.000000
  0.235313  0.011835  0.000000
  0.260119  0.010866  0.000000
  0.241705  0.012744  0.000000
  0.276355  0.018472  0.000000
  0.264163  0.016277  0.000000
  0.261052  0.024450  0.000000
  0.243735  0.030336  0.000000
  0.228988  0.021450  0.000000
  0.231208  0.033775  0.000000
  0.212285  0.040547  0.000000
  0.208076  0.049193  0.000000
  0.206588  0.054847  0.000000
  0.191778  0.042177  0.000000
  0.193840  0.054779  0.000000
  0.171527  0.056324  0.000000
  0.185194  0.053855  0.000000
  0.178212  0.064006  0.000000
  0.173157  0.072863  0.000000
  0.165239  0.076809  0.000000
  0.164030  0.083963  0.000000
  0.152161  0.085912  0.000000
  0.151980  0.093290  0.000000
  0.148099  0.098970  0.000000
  0.146312  0.105577  0.000000
  0.139600  0.113461  0.000000
  0.134648  0.119746  0.000000
  0.129800  0.129081  0.000000
  0.125431  0.136400  0.000000
  0.123921  0.141177  0.000000
  0.304496  0.011621  0.000000
  0.277398  0.010459  0.000000
  0.317660  0.014601  0.000000
  0.284300  0.013415  0.000000
  0.317203  0.031336  0.000000
  0.293866  0.011287  0.000000
  0.311514  0.025886  0.000000
  0.272342  0.026069  0.000000
  0.260656  0.036684  0.000000
  0.247866  0.038200  0.000000
  0.240990  0.042261  0.000000
  0.235480  0.048467  0.000000
  0.197619  0.043969  0.000000
  0.227411  0.041622  0.000000
  0.220112  0.045244  0.000000
  0.218443  0.057649  0.000000
  0.204782  0.065311  0.000000
  0.193424  0.062531  0.000000
  0.195364  0.071819  0.000000
  0.184384  0.069523  0.000000
  0.186600  0.078372  0.000000
  0.177809  0.081657  0.000000
  0.174065  0.088770  0.000000
  0.167983  0.094895  0.000000
  0.164058  0.101040  0.000000
  0.155623  0.109083  0.000000
  0.150535  0.116833  0.000000
  0.146609  0.123265  0.000000
  0.142191  0.132188  0.000000
  0.137175  0.136198  0.000000
  0.346793  0.011384  0.000000
  0.308857  0.013867  0.000000
  0.360496  0.011403  0.000000
  0.336834  0.011401  0.000000
  0.357967  0.013573  0.000000
  0.325399  0.010145  0.000000
  0.331774  0.019952  0.000000
  0.321722  0.023673  0.000000
  0.299405  0.024015  0.000000
  0.295600  0.037173  0.000000
  0.293069  0.020165  0.000000
  0.268274  0.031931  0.000000
  0.261307  0.042994  0.000000
  0.266864  0.053862  0.000000
  0.253666  0.048245  0.000000
  0.239662  0.059669  0.000000
  0.229723  0.053444  0.000000
  0.225161  0.062152  0.000000
  0.222601  0.069962  0.000000
  0.211554  0.066158  0.000000
  0.204575  0.078067  0.000000
  0.202082  0.081127  0.000000
  0.191876  0.087264  0.000000
  0.190078  0.092194  0.000000
  0.180790  0.098008  0.000000
  0.172023  0.105260  0.000000
  0.166521  0.110671  0.000000
  0.162767  0.120227  0.000000
  0.157433  0.132232  0.000000
  0.150853  0.133215  0.000000
  0.406997  0.012924  0.000000
  0.382485  0.011142  0.000000
  0.416926  0.011555  0.000000
  0.394027  0.011745  0.000000
  0.402420  0.012902  0.000000
  0.373538  0.011905  0.000000
  0.371119  0.018508  0.000000
  0.353931  0.027337  0.000000
  0.344061  0.017091  0.000000
  0.336883  0.026116  0.000000
  0.329323  0.036734  0.000000
  0.303005  0.034326  0.000000
  0.287197  0.029907  0.000000
  0.292694  0.047060  0.000000
  0.276016  0.041348  0.000000
  0.274426  0.049638  0.000000
  0.264968  0.061837  0.000000
  0.252747  0.054245  0.000000
  0.256302  0.065587  0.000000
  0.246388  0.060366  0.000000
  0.236106  0.068456  0.000000
  0.234966  0.075535  0.000000
  0.216898  0.076720  0.000000
  0.215105  0.088031  0.000000
  0.203899  0.093186  0.000000
  0.192491  0.101429  0.000000
  0.187237  0.108465  0.000000
  0.180405  0.115045  0.000000
  0.172469  0.122653  0.000000
  0.167362  0.127382  0.000000
  0.499406  0.011030  0.000000
  0.452893  0.012016  0.000000
  0.462853  0.012685  0.000000
  0.436834  0.010239  0.000000
  0.448631  0.012694  0.000000
  0.423369  0.011895  0.000000
  0.407329  0.027244  0.000000
  0.405264  0.026867  0.000000
  0.387938  0.015918  0.000000
  0.375162  0.025074  0.000000
  0.359602  0.025866  0.000000
  0.348793  0.032718  0.000000
  0.335718  0.032778  0.000000
  0.339443  0.046949  0.000000
  0.310865  0.039160  0.000000
  0.308745  0.050718  0.000000
  0.301549  0.047666  0.000000
  0.284554  0.031794  0.000000
  0.281927  0.044022  0.000000
  0.290199  0.055704  0.000000
  0.275872  0.060417  0.000000
  0.261517  0.071869  0.000000
  0.246723  0.072858  0.000000
  0.228017  0.082483  0.000000
  0.222595  0.084972  0.000000
  0.211614  0.094542  0.000000
  0.205643  0.102144  0.000000
  0.196422  0.109162  0.000000
  0.189733  0.121078  0.000000
  0.181523  0.122632  0.000000
  0.541038  0.011637  0.000000
  0.504663  0.012587  0.000000
  0.520456  0.011989  0.000000
  0.487277  0.013864  0.000000
  0.505514  0.025264  0.000000
  0.470669  0.012833  0.000000
  0.449382  0.026548  0.000000
  0.453035  0.035659  0.000000
  0.419817  0.022130  0.000000
  0.431967  0.027122  0.000000
  0.417155  0.036199  0.000000
  0.391084  0.027010  0.000000
  0.377011  0.030717  0.000000
  0.385060  0.040951  0.000000
  0.364158  0.037200  0.000000
  0.347376  0.041870  0.000000
  0.352745  0.054650  0.000000
  0.323452  0.041650  0.000000
  0.327213  0.055608  0.000000
  0.319555  0.047045  0.000000
  0.303224  0.060359  0.000000
  0.287700  0.060407  0.000000
  0.278966  0.067732  0.000000
  0.258124  0.079658  0.000000
  0.247050  0.081235  0.000000
  0.237436  0.089199  0.000000
  0.229458  0.100105  0.000000
  0.217347  0.105439  0.000000
  0.209035  0.114075  0.000000
  0.199962  0.118293  0.000000
  0.593214  0.009813  0.000000
  0.561536  0.014604  0.000000
  0.576300  0.010990  0.000000
  0.555998  0.010254  0.000000
  0.529938  0.026798  0.000000
  0.528786  0.010908  0.000000
  0.483100  0.009947  0.000000
  0.495026  0.038395  0.000000
  0.456853  0.025071  0.000000
  0.470860  0.017394  0.000000
  0.464349  0.028345  0.000000
  0.432270  0.015829  0.000000
  0.441756  0.021554  0.000000
  0.435806  0.031904  0.000000
  0.391679  0.031253  0.000000
  0.402783  0.039089  0.000000
  0.394340  0.040835  0.000000
  0.370519  0.036582  0.000000
  0.367167  0.050129  0.000000
  0.355641  0.040463  0.000000
  0.337313  0.049470  0.000000
  0.315517  0.057621  0.000000
  0.305195  0.065837  0.000000
  0.293058  0.068591  0.000000
  0.273405  0.073699  0.000000
  0.266245  0.084190  0.000000
  0.244348  0.085967  0.000000
  0.235807  0.096905  0.000000
  0.229110  0.111836  0.000000
  0.215859  0.111070  0.000000
  0.619914  0.011596  0.000000
  0.607697  0.011103  0.000000
  0.582129  0.018480  0.000000
  0.589227  0.031745  0.000000
  0.572680  0.013130  0.000000
  0.542378  0.013647  0.000000
  0.564326  0.027419  0.000000
  0.545094  0.026100  0.000000
  0.512259  0.013798  0.000000
  0.526129  0.019243  0.000000
  0.516694  0.025827  0.000000
  0.496165  0.024645  0.000000
  0.481313  0.026860  0.000000
  0.486927  0.022555  0.000000
  0.467603  0.040603  0.000000
  0.446516  0.041926  0.000000
  0.433073  0.043279  0.000000
  0.421494  0.028495  0.000000
  0.414552  0.041145  0.000000
  0.394391  0.052793  0.000000
  0.378906  0.044965  0.000000
  0.359204  0.053549  0.000000
  0.340468  0.059909  0.000000
  0.330717  0.065021  0.000000
  0.314357  0.067941  0.000000
  0.293602  0.076301  0.000000
  0.275592  0.079520  0.000000
  0.262538  0.092916  0.000000
  0.248722  0.102023  0.000000
  0.231776  0.105752  0.000000
  0.646306  0.018912  0.000000
  0.652994  0.020827  0.000000
  0.647588  0.010370  0.000000
  0.618900  0.019936  0.000000
  0.621469  0.034609  0.000000
  0.599017  0.016058  0.000000
  0.607850  0.017940  0.000000
  0.590808  0.020465  0.000000
  0.576145  0.046499  0.000000
  0.573920  0.029767  0.000000
  0.556469  0.018454  0.000000
  0.541372  0.025421  0.000000
  0.538538  0.038713  0.000000
  0.527654  0.034037  0.000000
  0.512920  0.031741  0.000000
  0.507938  0.040256  0.000000
  0.475746  0.042180  0.000000
  0.473813  0.030466  0.000000
  0.452769  0.042974  0.000000
  0.431595  0.042111  0.000000
  0.407907  0.046376  0.000000
  0.402660  0.055564  0.000000
  0.382377  0.052768  0.000000
  0.372578  0.064195  0.000000
  0.344550  0.070664  0.000000
  0.327561  0.063625  0.000000
  0.313507  0.074639  0.000000
  0.291326  0.079416  0.000000
  0.272648  0.094899  0.000000
  0.256932  0.095968  0.000000
  0.675110  0.011950  0.000000
  0.677817  0.034321  0.000000
  0.671055  0.020501  0.000000
  0.658883  0.012104  0.000000
  0.664150  0.012392  0.000000
  0.635937  0.010980  0.000000
  0.626875  0.013566  0.000000
  0.634633  0.020604  0.000000
  0.594345  0.030837  0.000000
  0.592383  0.055275  0.000000
  0.609789  0.038077  0.000000
  0.609873  0.028515  0.000000
  0.603061  0.036797  0.000000
  0.584773  0.050753  0.000000
  0.556367  0.032502  0.000000
  0.549276  0.035575  0.000000
  0.529889  0.042514  0.000000
  0.514011  0.047064  0.000000
  0.493009  0.038930  0.000000
  0.480719  0.051011  0.000000
  0.466141  0.047028  0.000000
  0.454210  0.056181  0.000000
  0.423495  0.056730  0.000000
  0.416281  0.053605  0.000000
  0.388532  0.059668  0.000000
  0.371204  0.055303  0.000000
  0.347875  0.077321  0.000000
  0.319864  0.085316  0.000000
  0.288590  0.090390  0.000000
  0.278722  0.091412  0.000000
  0.685680  0.034943  0.000000
  0.687903  0.013375  0.000000
  0.681672  0.014043  0.000000
  0.684122  0.053857  0.000000
  0.677649  0.077785  0.000000
  0.679374  0.041276  0.000000
  0.661621  0.052868  0.000000
  0.664238  0.035165  0.000000
  0.656372  0.029112  0.000000
  0.654248  0.036947  0.000000
  0.642143  0.033967  0.000000
  0.636178  0.027385  0.000000
  0.622976  0.029703  0.000000
  0.616307  0.044471  0.000000
  0.578483  0.027538  0.000000
  0.595799  0.044273  0.000000
  0.564832  0.034977  0.000000
  0.567857  0.046977  0.000000
  0.539487  0.055247  0.000000
  0.529498  0.052440  0.000000
  0.503682  0.056210  0.000000
  0.485205  0.036725  0.000000
  0.482319  0.059374  0.000000
  0.443038  0.053604  0.000000
  0.427148  0.058775  0.000000
  0.417120  0.061859  0.000000
  0.388413  0.069452  0.000000
  0.352437  0.060470  0.000000
  0.317681  0.079849  0.000000
  0.302224  0.081363  0.000000
  0.662239  0.106087  0.000000
  0.687774  0.028292  0.000000
  0.669555  0.078462  0.000000
  0.687960  0.130295  0.000000
  0.682634  0.069678  0.000000
  0.683599  0.056586  0.000000
  0.691049  0.046843  0.000000
  0.668578  0.037827  0.000000
  0.678285  0.064482  0.000000
  0.663168  0.049812  0.000000
  0.667037  0.055902  0.000000
  0.645480  0.038657  0.000000
  0.638413  0.050065  0.000000
  0.628851  0.049557  0.000000
  0.632936  0.039074  0.000000
  0.619727  0.049177  0.000000
  0.600705  0.051701  0.000000
  0.577900  0.042893  0.000000
  0.552683  0.047235  0.000000
  0.557292  0.048582  0.000000
  0.542076  0.047548  0.000000
  0.520169  0.043279  0.000000
  0.502622  0.047717  0.000000
  0.480753  0.055572  0.000000
  0.463078  0.053295  0.000000
  0.441038  0.056559  0.000000
  0.402090  0.061687  0.000000
  0.381194  0.066281  0.000000
  0.353190  0.072409  0.000000
  0.337490  0.076653  0.000000
 -0.010000  0.500000  0.000000
 -0.010000  0.490000  0.000000
 -0.010000  0.480000  0.000000
 -0.010000  0.470000  0.000000
 -0.010000  0.460000  0.000000
 -0.010000  0.450000  0.000000
 -0.010000  0.440000  0.000000
 -0.010000  0.430000  0.000000
 -0.010000  0.420000  0.000000
 -0.010000  0.410000  0.000000
 -0.010000  0.400000  0.000000
 -0.010000  0.390000  0.000000
 -0.010000  0.380000  0.000000
 -0.010000  0.370000  0.000000
 -0.010000  0.360000  0.000000
 -0.010000  0.350000  0.000000
 -0.010000  0.340000  0.000000
 -0.010000  0.330000  0.000000
 -0.010000  0.320000  0.000000
 -0.010000  0.310000  0.000000
 -0.010000  0.300000  0.000000
 -0.010000  0.290000  0.000000
 -0.010000  0.280000  0.000000
 -0.010000  0.270000  0.000000
 -0.010000  0.260000  0.000000
 -0.010000  0.250000  0.000000
 -0.010000  0.240000  0.000000
 -0.010000  0.230000  0.000000
 -0.010000  0.220000  0.000000
 -0.010000  0.210000  0.000000
 -0.010000  0.200000  0.000000
 -0.010000  0.190000  0.000000
 -0.010000  0.180000  0.000000
 -0.010000  0.170000  0.000000
 -0.010000  0.160000  0.000000
 -0.010000  0.150000  0.000000
 -0.010000  0.140000  0.000000
 -0.010000  0.130000  0.000000
 -0.010000  0.120000  0.000000
 -0.010000  0.110000  0.000000
 -0.010000  0.100000  0.000000
 -0.010000  0.090000  0.000000
 -0.010000  0.080000  0.000000
 -0.010000  0.070000  0.000000
 -0.010000  0.060000  0.000000
 -0.010000  0.050000  0.000000
 -0.010000  0.040000  0.000000
 -0.010000  0.030000  0.000000
 -0.010000  0.020000  0.000000
 -0.010000  0.010000  0.000000
 -0.100000 -0.010000  0.000000
 -0.090000 -0.010000  0.000000
 -0.080000 -0.010000  0.000000
 -0.070000 -0.010000  0.000000
 -0.060000 -0.010000  0.000000
 -0.050000 -0.010000  0.000000
 -0.040000 -0.010000  0.000000
 -0.030000 -0.010000  0.000000