<?xml version="1.0" encoding="UTF-8"?>
<VTKFile type="UnstructuredGrid" version="1.0" byte_order="LittleEndian">
<UnstructuredGrid>
  <Piece NumberOfPoints="1555" NumberOfCells="1555">
      <PointData>
        <DataArray type="Int32" Name="Type" format="ascii">
 1 1 1 1 1 1 1 1 1 1
 1 1 1 1 1 1 1 1 1 1
 1 1 1 1 1 1 1 1 1 1
 1 1 1 1 1 1 1 1 1 1
 1 1 1 1 1 1 1 1 1 1
 1 1 1 1 1 1 1 1 1 1
 1 3 3 3 3 3 3 3 3 3
 3 3 3 3 3 3 3 3 3 3
 3 3 3 3 3 3 3 3 3 3
 3 3 3 3 3 3 3 3 3 3
 3 3 3 3 3 3 3 3 3 3
 3 3 3 3 3 3 3 3 3 3
 3 3 3 3 3 3 3 3 3 3
 1 1 1 1 1 1 1 1 1 1
 1 1 1 1 1 1 1 1 1 1
 1 1 1 1 1 1 1 1 1 1
 1 1 1 1 1 1 1 1 1 1
 1 1 1 1 1 1 1 1 1 1
 1 1 1 1 1 1 1 1 1 1
 1 2 2 2 2 2 2 2 2 2
 2 2 2 2 2 2 2 2 2 2
 2 2 2 2 2 2 2 2 2 2
 2 2 2 2 2 2 2 2 2 2
 2 2 2 2 2 2 2 2 2 2
 2 2 2 2 2 2 2 2 2 2
 2 2 2 2 2 2 2 2 2 2
 2 2 2 2 2 2 2 2 2 2
 2 2 2 2 2 2 2 2 2 2
 2 2 2 2 2 2 2 2 2 2
 2 2 2 2 2 2 2 2 2 2
 2 2 2 2 2 2 2 2 2 2
 2 2 2 2 2 2 2 2 2 2
 2 2 2 2 2 2 2 2 2 2
 2 2 2 2 2 2 2 2 2 2
 2 2 2 2 2 2 2 2 2 2
 2 2 2 2 2 2 2 2 2 2
 2 2 2 2 2 2 2 2 2 2
 2 2 2 2 2 2 2 2 2 2
 2 2 2 2 2 2 2 2 2 2
 2 2 2 2 2 2 2 2 2 2
 2 2 2 2 2 2 2 2 2 2
 2 2 2 2 2 2 2 2 2 2
 2 2 2 2 2 2 2 2 2 2
 2 2 2 2 2 2 2 2 2 2
 2 2 2 2 2 2 2 2 2 2
 2 2 2 2 2 2 2 2 2 2
 2 2 2 2 2 2 2 2 2 2
 2 2 2 2 2 2 2 2 2 2
 2 2 2 2 2 2 2 2 2 2
 2 2 2 2 2 2 2 2 2 2
 2 2 2 2 2 2 2 2 2 2
 2 2 2 2 2 2 2 2 2 2
 2 2 2 2 2 2 2 2 2 2
 2 2 2 2 2 2 2 2 2 2
 2 2 2 2 2 2 2 2 2 2
 2 2 2 2 2 2 2 2 2 2
 2 2 2 2 2 2 2 2 2 2
 2 2 2 2 2 2 2 2 2 2
 2 2 2 2 2 2 2 2 2 2
 2 2 2 2 2 2 2 2 2 2
 2 2 2 2 2 2 2 2 2 2
 2 2 2 2 2 2 2 2 2 2
 2 2 2 2 2 2 2 2 2 2
 2 2 2 2 2 2 2 2 2 2
 2 2 2 2 2 2 2 2 2 2
 2 2 2 2 2 2 2 2 2 2
 2 2 2 2 2 2 2 2 2 2
 2 2 2 2 2 2 2 2 2 2
 2 2 2 2 2 2 2 2 2 2
 2 2 2 2 2 2 2 2 2 2
 2 2 2 2 2 2 2 2 2 2
 2 2 2 2 2 2 2 2 2 2
 2 2 2 2 2 2 2 2 2 2
 2 2 2 2 2 2 2 2 2 2
 2 2 2 2 2 2 2 2 2 2
 2 2 2 2 2 2 2 2 2 2
 2 2 2 2 2 2 2 2 2 2
 2 2 2 2 2 2 2 2 2 2
 2 2 2 2 2 2 2 2 2 2
 2 0 0 0 0 0 0 0 0 0
 0 0 0 0 0 0 0 0 0 0
 0 0 0 0 0 0 0 0 0 0
 0 0 0 0 0 0 0 0 0 0
 0 0 0 0 0 0 0 0 0 0
 0 0 0 0 0 0 0 0 0 0
 0 0 0 0 0 0 0 0 0 0
 0 0 0 0 0 0 0 0 0 0
 0 0 0 0 0 0 0 0 0 0
 0 0 0 0 0 0 0 0 0 0
 0 0 0 0 0 0 0 0 0 0
 0 0 0 0 0 0 0 0 0 0
 0 0 0 0 0 0 0 0 0 0
 0 0 0 0 0 0 0 0 0 0
 0 0 0 0 0 0 0 0 0 0
 0 0 0 0 0 0 0 0 0 0
 0 0 0 0 0 0 0 0 0 0
 0 0 0 0 0 0 0 0 0 0
 0 0 0 0 0 0 0 0 0 0
 0 0 0 0 0 0 0 0 0 0
 0 0 0 0 0 0 0 0 0 0
 0 0 0 0 0 0 0 0 0 0
 0 0 0 0 0 0 0 0 0 0
 0 0 0 0 0 0 0 0 0 0
 0 0 0 0 0 0 0 0 0 0
 0 0 0 0 0 0 0 0 0 0
 0 0 0 0 0 0 0 0 0 0
 0 0 0 0 0 0 0 0 0 0
 0 0 0 0 0 0 0 0 0 0
 0 0 0 0 0 0 0 0 0 0
 0 0 0 0 0 0 0 0 0 0
 0 0 0 0 0 0 0 0 0 0
 0 0 0 0 0 0 0 0 0 0
 0 0 0 0 0 0 0 0 0 0
 0 0 0 0 0 0 0 0 0 0
 0 0 0 0 0 0 0 0 0 0
 0 0 0 0 0 0 0 0 0 0
 0 0 0 0 0 0 0 0 0 0
 0 0 0 0 0 0 0 0 0 0
 0 0 0 0 0 0 0 0 0 0
 0 0 0 0 0 0 0 0 0 0
 0 0 0 0 0 0 0 0 0 0
 0 0 0 0 0 0 0 0 0 0
 0 0 0 0 0 0 0 0 0 0
 0 0 0 0 0 0 0 0 0 0
 0 0 0 0 0 0 0 0 0 0
 0 0 0 0 0 0 0 0 0 0
 0 0 0 0 0 0 0 0 0 0
 0 0 0 0 0 0 0 0 0 0
 0 0 0 0 0 0 0 0 0 0
 0 0 0 0 0 0 0 0 0 0
 0 0 0 0 0 0 0 0 0 0
 0 0 0 0 0 0 0 0 0 0
 0 0 0 0 0 0 0 0 0 0
 0 0 0 0 0 0 0 0 0 0
 0 0 0 0 0 0 0 0 0 0
 0 0 0 0 0 0 0 0 0 0
 0 0 0 0 0 0 0 0 0 0
 0 0 0 0 0 0 0 0 0 0
 0 0 0 0 0 0 0 0 0 0
 0 0 0 0 0 0 0 0 0 0
 0 0 0 0 0 0 0 0 0 0
 0 0 0 0 0 0 0 0 0 0
 0 0 0 0 0 0 0 0 0 0
 0 0 0 0 0 0 0 0 0 0
 0 0 0 0 0 0 0 0 0 0
 0 0 0 0 0 0 0 0 0 0
 0 0 0 0 0 0 0 0 0 0
 0 0 0 0 0 0 0 0 0 0
 0 0 0 0 0 0 0 0 0 0
 0 0 0 0 0 0 0 0 0 0
 0 0 0 0 0 0 0 0 0 0
 0 0 0 0 0 0 0 0 0 0
 0 0 0 0 0 0 0 0 0 0
 0 0 0 0 0 0 0 0 0 0
 0 0 0 0 0 0 0 0 0 0
 0 0 0 0 0
        </DataArray>
      </PointData>
      <Points>
        <DataArray type="Float32" NumberOfComponents="3" format="ascii">
  0.000000  0.500000  0.000000
  0.000000  0.490000  0.000000
  0.000000  0.480000  0.000000
  0.000000  0.470000  0.000000
  0.000000  0.460000  0.000000
  0.000000  0.450000  0.000000
  0.000000  0.440000  0.000000
  0.000000  0.430000  0.000000
  0.000000  0.420000  0.000000
  0.000000  0.410000  0.000000
  0.000000  0.400000  0.000000
  0.000000  0.390000  0.000000
  0.000000  0.380000  0.000000
  0.000000  0.370000  0.000000
  0.000000  0.360000  0.000000
  0.000000  0.350000  0.000000
  0.000000  0.340000  0.000000
  0.000000  0.330000  0.000000
  0.000000  0.320000  0.000000
  0.000000  0.310000  0.000000
  0.000000  0.300000  0.000000
  0.000000  0.290000  0.000000
  0.000000  0.280000  0.000000
  0.000000  0.270000  0.000000
  0.000000  0.260000  0.000000
  0.000000  0.250000  0.000000
  0.000000  0.240000  0.000000
  0.000000  0.230000  0.000000
  0.000000  0.220000  0.000000
  0.000000  0.210000  0.000000
  0.000000  0.200000  0.000000
  0.000000  0.190000  0.000000
  0.000000  0.180000  0.000000
  0.000000  0.170000  0.000000
  0.000000  0.160000  0.000000
  0.000000  0.150000  0.000000
  0.000000  0.140000  0.000000
  0.000000  0.130000  0.000000
  0.000000  0.120000  0.000000
  0.000000  0.110000  0.000000
  0.000000  0.100000  0.000000
  0.000000  0.090000  0.000000
  0.000000  0.080000  0.000000
  0.000000  0.070000  0.000000
  0.000000  0.060000  0.000000
  0.000000  0.050000  0.000000
  0.000000  0.040000  0.000000
  0.000000  0.030000  0.000000
  0.000000  0.020000  0.000000
  0.000000  0.010000  0.000000
 -0.100000  0.000000  0.000000
 -0.090000  0.000000  0.000000
 -0.080000  0.000000  0.000000
 -0.070000  0.000000  0.000000
 -0.060000  0.000000  0.000000
 -0.050000  0.000000  0.000000
 -0.040000  0.000000  0.000000
 -0.030000  0.000000  0.000000
 -0.020000  0.000000  0.000000
 -0.010000  0.000000  0.000000
 -0.000000  0.000000  0.000000
  0.010000  0.000000  0.000000
  0.020000  0.000000  0.000000
  0.030000  0.000000  0.000000
  0.040000  0.000000  0.000000
  0.050000  0.000000  0.000000
  0.060000  0.000000  0.000000
  0.070000  0.000000  0.000000
  0.080000  0.000000  0.000000
  0.090000  0.000000  0.000000
  0.100000  0.000000  0.000000
  0.110000  0.000000  0.000000
  0.120000  0.000000  0.000000
  0.130000  0.000000  0.000000
  0.140000  0.000000  0.000000
  0.150000  0.000000  0.000000
  0.160000  0.000000  0.000000
  0.170000  0.000000  0.000000
  0.180000  0.000000  0.000000
  0.190000  0.000000  0.000000
  0.200000  0.000000  0.000000
  0.210000  0.000000  0.000000
  0.220000  0.000000  0.000000
  0.230000  0.000000  0.000000
  0.240000  0.000000  0.000000
  0.250000  0.000000  0.000000
  0.260000  0.000000  0.000000
  0.270000  0.000000  0.000000
  0.280000  0.000000  0.000000
  0.290000  0.000000  0.000000
  0.300000  0.000000  0.000000
  0.310000  0.000000  0.000000
  0.320000  0.000000  0.000000
  0.330000  0.000000  0.000000
  0.340000  0.000000  0.000000
  0.350000  0.000000  0.000000
  0.360000  0.000000  0.000000
  0.370000  0.000000  0.000000
  0.380000  0.000000  0.000000
  0.390000  0.000000  0.000000
  0.400000  0.000000  0.000000
  0.410000  0.000000  0.000000
  0.420000  0.000000  0.000000
  0.430000  0.000000  0.000000
  0.440000  0.000000  0.000000
  0.450000  0.000000  0.000000
  0.460000  0.000000  0.000000
  0.470000  0.000000  0.000000
  0.480000  0.000000  0.000000
  0.490000  0.000000  0.000000
  0.500000  0.000000  0.000000
  0.510000  0.000000  0.000000
  0.520000  0.000000  0.000000
  0.530000  0.000000  0.000000
  0.540000  0.000000  0.000000
  0.550000  0.000000  0.000000
  0.560000  0.000000  0.000000
  0.570000  0.000000  0.000000
  0.580000  0.000000  0.000000
  0.590000  0.000000  0.000000
  0.600000  0.000000  0.000000
  0.610000  0.000000  0.000000
  0.620000  0.000000  0.000000
  0.630000  0.000000  0.000000
  0.640000  0.000000  0.000000
  0.650000  0.000000  0.000000
  0.660000  0.000000  0.000000
  0.670000  0.000000  0.000000
  0.680000  0.000000  0.000000
  0.690000  0.000000  0.000000
  0.700000  0.000000  0.000000
  0.710000  0.000000  0.000000
  0.720000  0.000000  0.000000
  0.730000  0.000000  0.000000
  0.740000  0.000000  0.000000
  0.750000  0.000000  0.000000
  0.760000  0.000000  0.000000
  0.770000  0.000000  0.000000
  0.780000  0.000000  0.000000
  0.790000  0.000000  0.000000
  0.800000  0.000000  0.000000
  0.700000  0.010000  0.000000
  0.700000  0.020000  0.000000
  0.700000  0.030000  0.000000
  0.700000  0.040000  0.000000
  0.700000  0.050000  0.000000
  0.700000  0.060000  0.000000
  0.700000  0.070000  0.000000
  0.700000  0.080000  0.000000
  0.700000  0.090000  0.000000
  0.700000  0.100000  0.000000
  0.700000  0.110000  0.000000
  0.700000  0.120000  0.000000
  0.700000  0.130000  0.000000
  0.700000  0.140000  0.000000
  0.700000  0.150000  0.000000
  0.700000  0.160000  0.000000
  0.700000  0.170000  0.000000
  0.700000  0.180000  0.000000
  0.700000  0.190000  0.000000
  0.700000  0.200000  0.000000
  0.700000  0.210000  0.000000
  0.700000  0.220000  0.000000
  0.700000  0.230000  0.000000
  0.700000  0.240000  0.000000
  0.700000  0.250000  0.000000
  0.700000  0.260000  0.000000
  0.700000  0.270000  0.000000
  0.700000  0.280000  0.000000
  0.700000  0.290000  0.000000
  0.700000  0.300000  0.000000
  0.700000  0.310000  0.000000
  0.700000  0.320000  0.000000
  0.700000  0.330000  0.000000
  0.700000  0.340000  0.000000
  0.700000  0.350000  0.000000
  0.700000  0.360000  0.000000
  0.700000  0.370000  0.000000
  0.700000  0.380000  0.000000
  0.700000  0.390000  0.000000
  0.700000  0.400000  0.000000
  0.700000  0.410000  0.000000
  0.700000  0.420000  0.000000
  0.700000  0.430000  0.000000
  0.700000  0.440000  0.000000
  0.700000  0.450000  0.000000
  0.700000  0.460000  0.000000
  0.700000  0.470000  0.000000
  0.700000  0.480000  0.000000
  0.700000  0.490000  0.000000
  0.700000  0.500000  0.000000
  0.011624  0.008906  0.000000
  0.021505  0.015620  0.000000
  0.030202  0.017349  0.000000
  0.010137  0.016317  0.000000
  0.017498  0.027037  0.000000
  0.009888  0.027044  0.000000
  0.028309  0.026262  0.000000
  0.030712  0.034624  0.000000
  0.038969  0.035400  0.000000
  0.019402  0.036492  0.000000
  0.029599  0.044071  0.000000
  0.009100  0.038758  0.000000
  0.011713  0.048395  0.000000
  0.008877  0.058007  0.000000
  0.009349  0.070599  0.000000
  0.017244  0.074976  0.000000
  0.022119  0.081257  0.000000
  0.009992  0.082004  0.000000
  0.018199  0.094484  0.000000
  0.008548  0.093093  0.000000
  0.013216  0.104003  0.000000
  0.010403  0.108702  0.000000
  0.010158  0.120350  0.000000
  0.011884  0.125443  0.000000
  0.009821  0.135027  0.000000
  0.015417  0.142067  0.000000
  0.010819  0.145567  0.000000
  0.019900  0.155569  0.000000
  0.007390  0.157893  0.000000
  0.022935  0.158105  0.000000
  0.041220  0.009748  0.000000
  0.027191  0.008014  0.000000
  0.049214  0.010192  0.000000
  0.040306  0.019759  0.000000
  0.054657  0.017707  0.000000
  0.054460  0.030555  0.000000
  0.070541  0.026248  0.000000
  0.043294  0.025232  0.000000
  0.047685  0.049659  0.000000
  0.043572  0.043592  0.000000
  0.036608  0.054388  0.000000
  0.019123  0.046892  0.000000
  0.038999  0.061197  0.000000
  0.028555  0.052671  0.000000
  0.048067  0.067146  0.000000
  0.017348  0.062260  0.000000
  0.022851  0.062016  0.000000
  0.030900  0.073467  0.000000
  0.036572  0.083836  0.000000
  0.022048  0.089424  0.000000
  0.032413  0.100236  0.000000
  0.029182  0.102759  0.000000
  0.022242  0.110454  0.000000
  0.029496  0.114329  0.000000
  0.023355  0.121621  0.000000
  0.028175  0.127278  0.000000
  0.025200  0.132849  0.000000
  0.029171  0.140079  0.000000
  0.028327  0.145742  0.000000
  0.029775  0.159646  0.000000
  0.079392  0.009105  0.000000
  0.062895  0.008110  0.000000
  0.068425  0.014228  0.000000
  0.060155  0.021163  0.000000
  0.076743  0.024756  0.000000
  0.088693  0.024911  0.000000
  0.105166  0.025769  0.000000
  0.078688  0.036115  0.000000
  0.079259  0.046519  0.000000
  0.050366  0.035261  0.000000
  0.064244  0.048072  0.000000
  0.063259  0.040241  0.000000
  0.052825  0.060639  0.000000
  0.053368  0.074658  0.000000
  0.066997  0.075129  0.000000
  0.032347  0.068628  0.000000
  0.054256  0.082536  0.000000
  0.042758  0.076395  0.000000
  0.046204  0.088461  0.000000
  0.035061  0.089637  0.000000
  0.046973  0.098016  0.000000
  0.045386  0.102206  0.000000
  0.043861  0.111124  0.000000
  0.039682  0.116196  0.000000
  0.044769  0.122842  0.000000
  0.043025  0.128970  0.000000
  0.042472  0.135908  0.000000
  0.042560  0.142456  0.000000
  0.040709  0.151490  0.000000
  0.037504  0.155834  0.000000
  0.105338  0.009543  0.000000
  0.092781  0.009596  0.000000
  0.106191  0.021216  0.000000
  0.080022  0.015008  0.000000
  0.108182  0.036664  0.000000
  0.095642  0.014999  0.000000
  0.097773  0.036458  0.000000
  0.091803  0.026678  0.000000
  0.085770  0.049651  0.000000
  0.064705  0.034835  0.000000
  0.098363  0.050167  0.000000
  0.067856  0.055798  0.000000
  0.088057  0.058688  0.000000
  0.055096  0.050622  0.000000
  0.060790  0.064852  0.000000
  0.075530  0.056908  0.000000
  0.069747  0.066797  0.000000
  0.073722  0.080187  0.000000
  0.065152  0.084502  0.000000
  0.059310  0.091240  0.000000
  0.066787  0.099424  0.000000
  0.060289  0.100086  0.000000
  0.056172  0.112281  0.000000
  0.061323  0.111212  0.000000
  0.059086  0.121122  0.000000
  0.057468  0.127305  0.000000
  0.058137  0.135099  0.000000
  0.055294  0.142457  0.000000
  0.053007  0.150456  0.000000
  0.055001  0.157208  0.000000
  0.130281  0.009021  0.000000
  0.115136  0.010160  0.000000
  0.129063  0.016458  0.000000
  0.117508  0.016176  0.000000
  0.139887  0.021726  0.000000
  0.120209  0.025434  0.000000
  0.116175  0.033315  0.000000
  0.128810  0.034902  0.000000
  0.083534  0.038137  0.000000
  0.119312  0.045027  0.000000
  0.098344  0.041834  0.000000
  0.115542  0.045701  0.000000
  0.106484  0.053015  0.000000
  0.095347  0.061683  0.000000
  0.103370  0.069360  0.000000
  0.081176  0.066228  0.000000
  0.091247  0.072184  0.000000
  0.083891  0.074372  0.000000
  0.089129  0.089257  0.000000
  0.080260  0.086278  0.000000
  0.076131  0.094735  0.000000
  0.080462  0.100037  0.000000
  0.077244  0.107085  0.000000
  0.074405  0.113354  0.000000
  0.075772  0.118731  0.000000
  0.072498  0.126906  0.000000
  0.070438  0.131709  0.000000
  0.069453  0.141075  0.000000
  0.067776  0.147955  0.000000
  0.064093  0.153526  0.000000
  0.151558  0.008824  0.000000
  0.139590  0.010953  0.000000
  0.159499  0.022950  0.000000
  0.146617  0.020054  0.000000
  0.180832  0.016831  0.000000
  0.153361  0.030715  0.000000
  0.170783  0.020446  0.000000
  0.129542  0.027718  0.000000
  0.141730  0.031704  0.000000
  0.151633  0.041088  0.000000
  0.139975  0.049472  0.000000
  0.141603  0.039010  0.000000
  0.131009  0.043515  0.000000
  0.118057  0.061015  0.000000
  0.107050  0.059720  0.000000
  0.114653  0.070916  0.000000
  0.103205  0.077932  0.000000
  0.115516  0.076889  0.000000
  0.093366  0.082187  0.000000
  0.106164  0.086847  0.000000
  0.096885  0.093603  0.000000
  0.098382  0.100693  0.000000
  0.092956  0.104856  0.000000
  0.093602  0.111680  0.000000
  0.091595  0.118592  0.000000
  0.087525  0.124495  0.000000
  0.085533  0.131249  0.000000
  0.084296  0.138512  0.000000
  0.079993  0.147240  0.000000
  0.081656  0.152215  0.000000
  0.191795  0.008525  0.000000
  0.166515  0.011202  0.000000
  0.175027  0.008546  0.000000
  0.156706  0.013654  0.000000
  0.208062  0.026485  0.000000
  0.188550  0.016097  0.000000
  0.187475  0.027156  0.000000
  0.174838  0.027262  0.000000
  0.161624  0.030958  0.000000
  0.170511  0.040326  0.000000
  0.161313  0.042201  0.000000
  0.168674  0.052730  0.000000
  0.150068  0.054495  0.000000
  0.129600  0.052657  0.000000
  0.136034  0.059331  0.000000
  0.123053  0.060751  0.000000
  0.131021  0.069568  0.000000
  0.128697  0.075941  0.000000
  0.126854  0.082774  0.000000
  0.112514  0.087816  0.000000
  0.120553  0.093972  0.000000
  0.113589  0.098314  0.000000
  0.111285  0.105652  0.000000
  0.111323  0.110742  0.000000
  0.104919  0.116002  0.000000
  0.104296  0.124320  0.000000
  0.101109  0.129778  0.000000
  0.097406  0.136685  0.000000
  0.094804  0.144973  0.000000
  0.091606  0.149734  0.000000
  0.212996  0.010768  0.000000
  0.200341  0.012743  0.000000
  0.240259  0.019574  0.000000
  0.207859  0.016081  0.000000
  0.243682  0.027101  0.000000
  0.220805  0.013370  0.000000
  0.224071  0.027967  0.000000
  0.198907  0.024559  0.000000
  0.212757  0.032845  0.000000
  0.200283  0.034232  0.000000
  0.189633  0.032822  0.000000
  0.176507  0.035104  0.000000
  0.177444  0.046423  0.000000
  0.153932  0.050494  0.000000
  0.160543  0.063258  0.000000
  0.150379  0.065285  0.000000
  0.142204  0.064482  0.000000
  0.155619  0.072216  0.000000
  0.141259  0.076702  0.000000
  0.146227  0.080338  0.000000
  0.137531  0.087761  0.000000
  0.130758  0.091413  0.000000
  0.132770  0.101448  0.000000
  0.127481  0.103659  0.000000
  0.126106  0.112723  0.000000
  0.122119  0.118924  0.000000
  0.117003  0.125080  0.000000
  0.113361  0.133465  0.000000
  0.109474  0.142744  0.000000
  0.106792  0.147969  0.000000
  0.247021  0.012370  0.000000
  0.229883  0.011367  0.000000
  0.256061  0.010702  0.000000
  0.236364  0.012426  0.000000
  0.271092  0.019010  0.000000
  0.258200  0.015832  0.000000
  0.255179  0.024704  0.000000
  0.238723  0.031140  0.000000
  0.223237  0.021832  0.000000
  0.225977  0.033989  0.000000
  0.208304  0.040644  0.000000
  0.203953  0.049752  0.000000
  0.203125  0.055412  0.000000
  0.187350  0.043634  0.000000
  0.189970  0.056406  0.000000
  0.168862  0.057956  0.000000
  0.182302  0.055979  0.000000
  0.173545  0.065830  0.000000
  0.169826  0.074206  0.000000
  0.162161  0.078298  0.000000
  0.160354  0.085404  0.000000
  0.150649  0.088383  0.000000
  0.149878  0.095119  0.000000
  0.146102  0.101004  0.000000
  0.143614  0.107447  0.000000
  0.137048  0.115809  0.000000
  0.131812  0.122497  0.000000
  0.127637  0.131372  0.000000
  0.123297  0.139368  0.000000
  0.121671  0.144201  0.000000
  0.296684  0.011910  0.000000
  0.270602  0.010151  0.000000
  0.311103  0.015249  0.000000
  0.277501  0.013369  0.000000
  0.309514  0.031305  0.000000
  0.287714  0.011285  0.000000
  0.301978  0.025363  0.000000
  0.266307  0.026295  0.000000
  0.256251  0.036831  0.000000
  0.242547  0.038658  0.000000
  0.236029  0.042585  0.000000
  0.230670  0.049373  0.000000
  0.193376  0.044948  0.000000
  0.223074  0.042654  0.000000
  0.215144  0.046895  0.000000
  0.213487  0.058566  0.000000
  0.201257  0.066362  0.000000
  0.189608  0.063750  0.000000
  0.191387  0.073005  0.000000
  0.180671  0.071373  0.000000
  0.183238  0.080161  0.000000
  0.174693  0.084160  0.000000
  0.171726  0.091483  0.000000
  0.165865  0.097085  0.000000
  0.160580  0.103657  0.000000
  0.152447  0.111906  0.000000
  0.147944  0.119216  0.000000
  0.143940  0.126060  0.000000
  0.139709  0.134975  0.000000
  0.134906  0.139473  0.000000
  0.338881  0.011390  0.000000
  0.302375  0.013117  0.000000
  0.351781  0.011289  0.000000
  0.330311  0.011760  0.000000
  0.350278  0.014784  0.000000
  0.317502  0.009726  0.000000
  0.322409  0.020149  0.000000
  0.314296  0.024543  0.000000
  0.292346  0.023865  0.000000
  0.289832  0.037736  0.000000
  0.285356  0.021821  0.000000
  0.262480  0.032731  0.000000
  0.255289  0.043776  0.000000
  0.260264  0.053622  0.000000
  0.247887  0.048931  0.000000
  0.235148  0.060275  0.000000
  0.224862  0.054424  0.000000
  0.220885  0.063295  0.000000
  0.217606  0.071288  0.000000
  0.208057  0.068362  0.000000
  0.200154  0.079353  0.000000
  0.197746  0.082536  0.000000
  0.188756  0.089010  0.000000
  0.186110  0.094115  0.000000
  0.176785  0.099655  0.000000
  0.169115  0.107827  0.000000
  0.164034  0.113541  0.000000
  0.159734  0.122265  0.000000
  0.153984  0.134272  0.000000
  0.148023  0.136246  0.000000
  0.397566  0.012544  0.000000
  0.372944  0.012099  0.000000
  0.407401  0.012346  0.000000
  0.385190  0.011562  0.000000
  0.391831  0.013397  0.000000
  0.364672  0.011102  0.000000
  0.361836  0.019096  0.000000
  0.346362  0.028244  0.000000
  0.335180  0.017575  0.000000
  0.329328  0.026534  0.000000
  0.321407  0.036718  0.000000
  0.296700  0.035376  0.000000
  0.280050  0.030141  0.000000
  0.286273  0.047413  0.000000
  0.270125  0.041884  0.000000
  0.268489  0.051255  0.000000
  0.259658  0.062614  0.000000
  0.247814  0.055442  0.000000
  0.250729  0.067283  0.000000
  0.240833  0.062002  0.000000
  0.231651  0.070724  0.000000
  0.229891  0.076527  0.000000
  0.213396  0.078824  0.000000
  0.210147  0.090358  0.000000
  0.199245  0.095517  0.000000
  0.189003  0.103723  0.000000
  0.183732  0.110461  0.000000
  0.176236  0.117546  0.000000
  0.169341  0.125578  0.000000
  0.164582  0.130823  0.000000
  0.487427  0.011878  0.000000
  0.442151  0.011883  0.000000
  0.452154  0.013344  0.000000
  0.426711  0.010309  0.000000
  0.437259  0.013505  0.000000
  0.413145  0.011363  0.000000
  0.398292  0.027322  0.000000
  0.395699  0.027603  0.000000
  0.378141  0.017228  0.000000
  0.367331  0.025421  0.000000
  0.351653  0.026447  0.000000
  0.340638  0.033374  0.000000
  0.327753  0.033153  0.000000
  0.331492  0.047191  0.000000
  0.304690  0.039427  0.000000
  0.302315  0.050769  0.000000
  0.294757  0.049413  0.000000
  0.278754  0.034527  0.000000
  0.276716  0.046754  0.000000
  0.282851  0.056761  0.000000
  0.269132  0.062071  0.000000
  0.255724  0.072991  0.000000
  0.241160  0.074617  0.000000
  0.223810  0.084061  0.000000
  0.217748  0.087810  0.000000
  0.207972  0.096958  0.000000
  0.201367  0.104390  0.000000
  0.192443  0.111599  0.000000
  0.186146  0.123384  0.000000
  0.178149  0.126201  0.000000
  0.528817  0.011699  0.000000
  0.492890  0.013207  0.000000
  0.508174  0.011569  0.000000
  0.475785  0.013651  0.000000
  0.493661  0.024742  0.000000
  0.459345  0.011500  0.000000
  0.438502  0.026804  0.000000
  0.442835  0.035299  0.000000
  0.409822  0.022164  0.000000
  0.421015  0.027419  0.000000
  0.406914  0.037045  0.000000
  0.381365  0.026672  0.000000
  0.368551  0.031436  0.000000
  0.375943  0.041027  0.000000
  0.355329  0.038328  0.000000
  0.339107  0.042633  0.000000
  0.343924  0.055727  0.000000
  0.316399  0.042514  0.000000
  0.319824  0.055743  0.000000
  0.312137  0.049174  0.000000
  0.296137  0.061719  0.000000
  0.281794  0.062524  0.000000
  0.272495  0.069916  0.000000
  0.252738  0.080394  0.000000
  0.241997  0.083345  0.000000
  0.233132  0.091663  0.000000
  0.224285  0.101594  0.000000
  0.212781  0.107159  0.000000
  0.204340  0.116587  0.000000
  0.196098  0.121254  0.000000
  0.580398  0.009881  0.000000
  0.548363  0.014405  0.000000
  0.563315  0.010642  0.000000
  0.543333  0.010402  0.000000
  0.517277  0.027070  0.000000
  0.517372  0.011366  0.000000
  0.471855  0.010690  0.000000
  0.484173  0.038243  0.000000
  0.447213  0.024507  0.000000
  0.459643  0.018317  0.000000
  0.454472  0.028902  0.000000
  0.422956  0.016595  0.000000
  0.431050  0.022917  0.000000
  0.425451  0.032853  0.000000
  0.383611  0.031761  0.000000
  0.393201  0.039331  0.000000
  0.384162  0.041619  0.000000
  0.362289  0.037723  0.000000
  0.358877  0.050749  0.000000
  0.347674  0.041269  0.000000
  0.329550  0.050415  0.000000
  0.308913  0.059007  0.000000
  0.297947  0.066790  0.000000
  0.286417  0.070017  0.000000
  0.267614  0.075735  0.000000
  0.260574  0.086098  0.000000
  0.239219  0.088765  0.000000
  0.231271  0.099401  0.000000
  0.224232  0.114458  0.000000
  0.211801  0.114191  0.000000
  0.607665  0.011081  0.000000
  0.595239  0.011488  0.000000
  0.568905  0.017861  0.000000
  0.575633  0.031337  0.000000
  0.560652  0.013563  0.000000
  0.529937  0.013462  0.000000
  0.551157  0.027334  0.000000
  0.533120  0.025735  0.000000
  0.501654  0.013689  0.000000
  0.513706  0.020524  0.000000
  0.503126  0.026385  0.000000
  0.485234  0.023746  0.000000
  0.470420  0.027529  0.000000
  0.474603  0.023681  0.000000
  0.455976  0.040647  0.000000
  0.435157  0.041374  0.000000
  0.423431  0.044230  0.000000
  0.411535  0.029531  0.000000
  0.404467  0.042371  0.000000
  0.385169  0.052785  0.000000
  0.369615  0.046441  0.000000
  0.350439  0.055383  0.000000
  0.332902  0.061340  0.000000
  0.322887  0.066217  0.000000
  0.306884  0.070317  0.000000
  0.286307  0.078390  0.000000
  0.269077  0.081582  0.000000
  0.256985  0.095070  0.000000
  0.242742  0.103919  0.000000
  0.227404  0.109040  0.000000
  0.634294  0.016624  0.000000
  0.642759  0.018953  0.000000
  0.637358  0.009746  0.000000
  0.606755  0.018841  0.000000
  0.609058  0.034346  0.000000
  0.586117  0.015116  0.000000
  0.595112  0.017379  0.000000
  0.578057  0.019697  0.000000
  0.562737  0.046002  0.000000
  0.560678  0.029622  0.000000
  0.544298  0.019451  0.000000
  0.528186  0.026219  0.000000
  0.526233  0.038873  0.000000
  0.515809  0.033737  0.000000
  0.501199  0.032040  0.000000
  0.495761  0.040555  0.000000
  0.465143  0.042704  0.000000
  0.463092  0.031363  0.000000
  0.443671  0.043536  0.000000
  0.422061  0.043638  0.000000
  0.399277  0.047470  0.000000
  0.393968  0.056828  0.000000
  0.373700  0.054334  0.000000
  0.363380  0.064164  0.000000
  0.336653  0.071347  0.000000
  0.320431  0.065625  0.000000
  0.306489  0.076797  0.000000
  0.284601  0.081677  0.000000
  0.266358  0.097084  0.000000
  0.251486  0.099119  0.000000
  0.666328  0.012737  0.000000
  0.673741  0.025015  0.000000
  0.662948  0.017056  0.000000
  0.649491  0.011876  0.000000
  0.655486  0.012711  0.000000
  0.625039  0.011453  0.000000
  0.614426  0.014279  0.000000
  0.623590  0.019363  0.000000
  0.582091  0.031979  0.000000
  0.580203  0.055341  0.000000
  0.597467  0.039213  0.000000
  0.594813  0.028473  0.000000
  0.589363  0.037351  0.000000
  0.571321  0.051060  0.000000
  0.544230  0.033062  0.000000
  0.536559  0.036543  0.000000
  0.517856  0.042557  0.000000
  0.501873  0.047273  0.000000
  0.481818  0.040303  0.000000
  0.469577  0.051871  0.000000
  0.454857  0.048317  0.000000
  0.443799  0.055971  0.000000
  0.414763  0.056949  0.000000
  0.405641  0.055807  0.000000
  0.379831  0.061515  0.000000
  0.362577  0.057257  0.000000
  0.340223  0.079570  0.000000
  0.312012  0.087091  0.000000
  0.282722  0.092196  0.000000
  0.272187  0.093655  0.000000
  0.684519  0.024981  0.000000
  0.678244  0.009268  0.000000
  0.678868  0.015617  0.000000
  0.682703  0.041152  0.000000
  0.677672  0.059639  0.000000
  0.671191  0.028738  0.000000
  0.649063  0.044390  0.000000
  0.655691  0.028963  0.000000
  0.647112  0.028216  0.000000
  0.645766  0.032600  0.000000
  0.631553  0.031072  0.000000
  0.623654  0.027842  0.000000
  0.610739  0.028225  0.000000
  0.602476  0.044675  0.000000
  0.567186  0.028015  0.000000
  0.583045  0.043692  0.000000
  0.552161  0.035705  0.000000
  0.554243  0.047787  0.000000
  0.527361  0.054776  0.000000
  0.517188  0.052683  0.000000
  0.493279  0.055111  0.000000
  0.473963  0.038466  0.000000
  0.470321  0.060308  0.000000
  0.432883  0.055264  0.000000
  0.418250  0.059341  0.000000
  0.406889  0.064101  0.000000
  0.380162  0.070743  0.000000
  0.344420  0.062506  0.000000
  0.310441  0.080398  0.000000
  0.294907  0.083452  0.000000
  0.669605  0.083890  0.000000
  0.688837  0.022869  0.000000
  0.679024  0.056378  0.000000
  0.687837  0.090276  0.000000
  0.691103  0.048976  0.000000
  0.673560  0.042326  0.000000
  0.686607  0.037071  0.000000
  0.661669  0.030346  0.000000
  0.672564  0.047056  0.000000
  0.650288  0.044653  0.000000
  0.658346  0.043981  0.000000
  0.630738  0.036981  0.000000
  0.624822  0.048833  0.000000
  0.615697  0.047378  0.000000
  0.620264  0.038638  0.000000
  0.605532  0.047643  0.000000
  0.587532  0.053709  0.000000
  0.565650  0.044256  0.000000
  0.541008  0.048891  0.000000
  0.544525  0.049626  0.000000
  0.528716  0.048799  0.000000
  0.508225  0.045350  0.000000
  0.492043  0.049019  0.000000
  0.469666  0.056592  0.000000
  0.452924  0.054338  0.000000
  0.429550  0.058607  0.000000
  0.393329  0.062616  0.000000
  0.373862  0.067787  0.000000
  0.345184  0.074147  0.000000
  0.329221  0.077187  0.000000
 -0.010000  0.500000  0.000000
 -0.010000  0.490000  0.000000
 -0.010000  0.480000  0.000000
 -0.010000  0.470000  0.000000
 -0.010000  0.460000  0.000000
 -0.010000  0.450000  0.000000
 -0.010000  0.440000  0.000000
 -0.010000  0.430000  0.000000
 -0.010000  0.420000  0.000000
 -0.010000  0.410000  0.000000
 -0.010000  0.400000  0.000000
 -0.010000  0.390000  0.000000
 -0.010000  0.380000  0.000000
 -0.010000  0.370000  0.000000
 -0.010000  0.360000  0.000000
 -0.010000  0.350000  0.000000
 -0.010000  0.340000  0.000000
 -0.010000  0.330000  0.000000
 -0.010000  0.320000  0.000000
 -0.010000  0.310000  0.000000
 -0.010000  0.300000  0.000000
 -0.010000  0.290000  0.000000
 -0.010000  0.280000  0.000000
 -0.010000  0.270000  0.000000
 -0.010000  0.260000  0.000000
 -0.010000  0.250000  0.000000
 -0.010000  0.240000  0.000000
 -0.010000  0.230000  0.000000
 -0.010000  0.220000  0.000000
 -0.010000  0.210000  0.000000
 -0.010000  0.200000  0.000000
 -0.010000  0.190000  0.000000
 -0.010000  0.180000  0.000000
 -0.010000  0.170000  0.000000
 -0.010000  0.160000  0.000000
 -0.010000  0.150000  0.000000
 -0.010000  0.140000  0.000000
 -0.010000  0.130000  0.000000
 -0.010000  0.120000  0.000000
 -0.010000  0.110000  0.000000
 -0.010000  0.100000  0.000000
 -0.010000  0.090000  0.000000
 -0.010000  0.080000  0.000000
 -0.010000  0.070000  0.000000
 -0.010000  0.060000  0.000000
 -0.010000  0.050000  0.000000
 -0.010000  0.040000  0.000000
 -0.010000  0.030000  0.000000
 -0.010000  0.020000  0.000000
 -0.010000  0.010000  0.000000
 -0.100000 -0.010000  0.000000
 -0.090000 -0.010000  0.000000
 -0.080000 -0.010000  0.000000
 -0.070000 -0.010000  0.000000
 -0.060000 -0.010000  0.000000
 -0.050000 -0.010000  0.000000
 -0.040000 -0.010000  0.000000
 -0.030000 -0.010000  0.000000