<?xml version="1.0" encoding="UTF-8"?>
<VTKFile type="UnstructuredGrid" version="1.0" byte_order="LittleEndian">
<UnstructuredGrid>
  <Piece NumberOfPoints="1532" NumberOfCells="1532">
      <PointData>
        <DataArray type="Int32" Name="Type" format="ascii">
 1 1 1 1 1 1 1 1 1 1
 1 1 1 1 1 1 1 1 1 1
 1 1 1 1 1 1 1 1 1 1
 1 1 1 1 1 1 1 1 1 1
 1 1 1 1 1 1 1 1 1 1
 1 1 1 1 1 1 1 1 1 1
 1 3 3 3 3 3 3 3 3 3
 3 3 3 3 3 3 3 3 3 3
 3 3 3 3 3 3 3 3 3 3
 3 3 3 3 3 3 3 3 3 3
 3 3 3 3 3 3 3 3 3 3
 3 3 3 3 3 3 3 3 3 3
 3 3 3 3 3 3 3 3 3 3
 1 1 1 1 1 1 1 1 1 1
 1 1 1 1 1 1 1 1 1 1
 1 1 1 1 1 1 1 1 1 1
 1 1 1 1 1 1 1 1 1 1
 1 1 1 1 1 1 1 1 1 1
 1 1 1 1 1 1 1 1 1 1
 1 2 2 2 2 2 2 2 2 2
 2 2 2 2 2 2 2 2 2 2
 2 2 2 2 2 2 2 2 2 2
 2 2 2 2 2 2 2 2 2 2
 2 2 2 2 2 2 2 2 2 2
 2 2 2 2 2 2 2 2 2 2
 2 2 2 2 2 2 2 2 2 2
 2 2 2 2 2 2 2 2 2 2
 2 2 2 2 2 2 2 2 2 2
 2 2 2 2 2 2 2 2 2 2
 2 2 2 2 2 2 2 2 2 2
 2 2 2 2 2 2 2 2 2 2
 2 2 2 2 2 2 2 2 2 2
 2 2 2 2 2 2 2 2 2 2
 2 2 2 2 2 2 2 2 2 2
 2 2 2 2 2 2 2 2 2 2
 2 2 2 2 2 2 2 2 2 2
 2 2 2 2 2 2 2 2 2 2
 2 2 2 2 2 2 2 2 2 2
 2 2 2 2 2 2 2 2 2 2
 2 2 2 2 2 2 2 2 2 2
 2 2 2 2 2 2 2 2 2 2
 2 2 2 2 2 2 2 2 2 2
 2 2 2 2 2 2 2 2 2 2
 2 2 2 2 2 2 2 2 2 2
 2 2 2 2 2 2 2 2 2 2
 2 2 2 2 2 2 2 2 2 2
 2 2 2 2 2 2 2 2 2 2
 2 2 2 2 2 2 2 2 2 2
 2 2 2 2 2 2 2 2 2 2
 2 2 2 2 2 2 2 2 2 2
 2 2 2 2 2 2 2 2 2 2
 2 2 2 2 2 2 2 2 2 2
 2 2 2 2 2 2 2 2 2 2
 2 2 2 2 2 2 2 2 2 2
 2 2 2 2 2 2 2 2 2 2
 2 2 2 2 2 2 2 2 2 2
 2 2 2 2 2 2 2 2 2 2
 2 2 2 2 2 2 2 2 2 2
 2 2 2 2 2 2 2 2 2 2
 2 2 2 2 2 2 2 2 2 2
 2 2 2 2 2 2 2 2 2 2
 2 2 2 2 2 2 2 2 2 2
 2 2 2 2 2 2 2 2 2 2
 2 2 2 2 2 2 2 2 2 2
 2 2 2 2 2 2 2 2 2 2
 2 2 2 2 2 2 2 2 2 2
 2 2 2 2 2 2 2 2 2 2
 2 2 2 2 2 2 2 2 2 2
 2 2 2 2 2 2 2 2 2 2
 2 2 2 2 2 2 2 2 2 2
 2 2 2 2 2 2 2 2 2 2
 2 2 2 2 2 2 2 2 2 2
 2 2 2 2 2 2 2 2 2 2
 2 2 2 2 2 2 2 2 2 2
 2 2 2 2 2 2 2 2 2 2
 2 2 2 2 2 2 2 2 2 2
 2 2 2 2 2 2 2 2 0 0
 0 0 0 0 0 0 0 0 0 0
 0 0 0 0 0 0 0 0 0 0
 0 0 0 0 0 0 0 0 0 0
 0 0 0 0 0 0 0 0 0 0
 0 0 0 0 0 0 0 0 0 0
 0 0 0 0 0 0 0 0 0 0
 0 0 0 0 0 0 0 0 0 0
 0 0 0 0 0 0 0 0 0 0
 0 0 0 0 0 0 0 0 0 0
 0 0 0 0 0 0 0 0 0 0
 0 0 0 0 0 0 0 0 0 0
 0 0 0 0 0 0 0 0 0 0
 0 0 0 0 0 0 0 0 0 0
 0 0 0 0 0 0 0 0 0 0
 0 0 0 0 0 0 0 0 0 0
 0 0 0 0 0 0 0 0 0 0
 0 0 0 0 0 0 0 0 0 0
 0 0 0 0 0 0 0 0 0 0
 0 0 0 0 0 0 0 0 0 0
 0 0 0 0 0 0 0 0 0 0
 0 0 0 0 0 0 0 0 0 0
 0 0 0 0 0 0 0 0 0 0
 0 0 0 0 0 0 0 0 0 0
 0 0 0 0 0 0 0 0 0 0
 0 0 0 0 0 0 0 0 0 0
 0 0 0 0 0 0 0 0 0 0
 0 0 0 0 0 0 0 0 0 0
 0 0 0 0 0 0 0 0 0 0
 0 0 0 0 0 0 0 0 0 0
 0 0 0 0 0 0 0 0 0 0
 0 0 0 0 0 0 0 0 0 0
 0 0 0 0 0 0 0 0 0 0
 0 0 0 0 0 0 0 0 0 0
 0 0 0 0 0 0 0 0 0 0
 0 0 0 0 0 0 0 0 0 0
 0 0 0 0 0 0 0 0 0 0
 0 0 0 0 0 0 0 0 0 0
 0 0 0 0 0 0 0 0 0 0
 0 0 0 0 0 0 0 0 0 0
 0 0 0 0 0 0 0 0 0 0
 0 0 0 0 0 0 0 0 0 0
 0 0 0 0 0 0 0 0 0 0
 0 0 0 0 0 0 0 0 0 0
 0 0 0 0 0 0 0 0 0 0
 0 0 0 0 0 0 0 0 0 0
 0 0 0 0 0 0 0 0 0 0
 0 0 0 0 0 0 0 0 0 0
 0 0 0 0 0 0 0 0 0 0
 0 0 0 0 0 0 0 0 0 0
 0 0 0 0 0 0 0 0 0 0
 0 0 0 0 0 0 0 0 0 0
 0 0 0 0 0 0 0 0 0 0
 0 0 0 0 0 0 0 0 0 0
 0 0 0 0 0 0 0 0 0 0
 0 0 0 0 0 0 0 0 0 0
 0 0 0 0 0 0 0 0 0 0
 0 0 0 0 0 0 0 0 0 0
 0 0 0 0 0 0 0 0 0 0
 0 0 0 0 0 0 0 0 0 0
 0 0 0 0 0 0 0 0 0 0
 0 0 0 0 0 0 0 0 0 0
 0 0 0 0 0 0 0 0 0 0
 0 0 0 0 0 0 0 0 0 0
 0 0 0 0 0 0 0 0 0 0
 0 0 0 0 0 0 0 0 0 0
 0 0 0 0 0 0 0 0 0 0
 0 0 0 0 0 0 0 0 0 0
 0 0 0 0 0 0 0 0 0 0
 0 0 0 0 0 0 0 0 0 0
 0 0 0 0 0 0 0 0 0 0
 0 0 0 0 0 0 0 0 0 0
 0 0 0 0 0 0 0 0 0 0
 0 0 0 0 0 0 0 0 0 0
 0 0 0 0 0 0 0 0 0 0
 0 0 0 0 0 0 0 0 0 0
 0 0 0 0 0 0 0 0 0 0
 0 0
        </DataArray>
      </PointData>
      <Points>
        <DataArray type="Float32" NumberOfComponents="3" format="ascii">
  0.000000  0.500000  0.000000
  0.000000  0.490000  0.000000
  0.000000  0.480000  0.000000
  0.000000  0.470000  0.000000
  0.000000  0.460000  0.000000
  0.000000  0.450000  0.000000
  0.000000  0.440000  0.000000
  0.000000  0.430000  0.000000
  0.000000  0.420000  0.000000
  0.000000  0.410000  0.000000
  0.000000  0.400000  0.000000
  0.000000  0.390000  0.000000
  0.000000  0.380000  0.000000
  0.000000  0.370000  0.000000
  0.000000  0.360000  0.000000
  0.000000  0.350000  0.000000
  0.000000  0.340000  0.000000
  0.000000  0.330000  0.000000
  0.000000  0.320000  0.000000
  0.000000  0.310000  0.000000
  0.000000  0.300000  0.000000
  0.000000  0.290000  0.000000
  0.000000  0.280000  0.000000
  0.000000  0.270000  0.000000
  0.000000  0.260000  0.000000
  0.000000  0.250000  0.000000
  0.000000  0.240000  0.000000
  0.000000  0.230000  0.000000
  0.000000  0.220000  0.000000
  0.000000  0.210000  0.000000
  0.000000  0.200000  0.000000
  0.000000  0.190000  0.000000
  0.000000  0.180000  0.000000
  0.000000  0.170000  0.000000
  0.000000  0.160000  0.000000
  0.000000  0.150000  0.000000
  0.000000  0.140000  0.000000
  0.000000  0.130000  0.000000
  0.000000  0.120000  0.000000
  0.000000  0.110000  0.000000
  0.000000  0.100000  0.000000
  0.000000  0.090000  0.000000
  0.000000  0.080000  0.000000
  0.000000  0.070000  0.000000
  0.000000  0.060000  0.000000
  0.000000  0.050000  0.000000
  0.000000  0.040000  0.000000
  0.000000  0.030000  0.000000
  0.000000  0.020000  0.000000
  0.000000  0.010000  0.000000
 -0.100000  0.000000  0.000000
 -0.090000  0.000000  0.000000
 -0.080000  0.000000  0.000000
 -0.070000  0.000000  0.000000
 -0.060000  0.000000  0.000000
 -0.050000  0.000000  0.000000
 -0.040000  0.000000  0.000000
 -0.030000  0.000000  0.000000
 -0.020000  0.000000  0.000000
 -0.010000  0.000000  0.000000
 -0.000000  0.000000  0.000000
  0.010000  0.000000  0.000000
  0.020000  0.000000  0.000000
  0.030000  0.000000  0.000000
  0.040000  0.000000  0.000000
  0.050000  0.000000  0.000000
  0.060000  0.000000  0.000000
  0.070000  0.000000  0.000000
  0.080000  0.000000  0.000000
  0.090000  0.000000  0.000000
  0.100000  0.000000  0.000000
  0.110000  0.000000  0.000000
  0.120000  0.000000  0.000000
  0.130000  0.000000  0.000000
  0.140000  0.000000  0.000000
  0.150000  0.000000  0.000000
  0.160000  0.000000  0.000000
  0.170000  0.000000  0.000000
  0.180000  0.000000  0.000000
  0.190000  0.000000  0.000000
  0.200000  0.000000  0.000000
  0.210000  0.000000  0.000000
  0.220000  0.000000  0.000000
  0.230000  0.000000  0.000000
  0.240000  0.000000  0.000000
  0.250000  0.000000  0.000000
  0.260000  0.000000  0.000000
  0.270000  0.000000  0.000000
  0.280000  0.000000  0.000000
  0.290000  0.000000  0.000000
  0.300000  0.000000  0.000000
  0.310000  0.000000  0.000000
  0.320000  0.000000  0.000000
  0.330000  0.000000  0.000000
  0.340000  0.000000  0.000000
  0.350000  0.000000  0.000000
  0.360000  0.000000  0.000000
  0.370000  0.000000  0.000000
  0.380000  0.000000  0.000000
  0.390000  0.000000  0.000000
  0.400000  0.000000  0.000000
  0.410000  0.000000  0.000000
  0.420000  0.000000  0.000000
  0.430000  0.000000  0.000000
  0.440000  0.000000  0.000000
  0.450000  0.000000  0.000000
  0.460000  0.000000  0.000000
  0.470000  0.000000  0.000000
  0.480000  0.000000  0.000000
  0.490000  0.000000  0.000000
  0.500000  0.000000  0.000000
  0.510000  0.000000  0.000000
  0.520000  0.000000  0.000000
  0.530000  0.000000  0.000000
  0.540000  0.000000  0.000000
  0.550000  0.000000  0.000000
  0.560000  0.000000  0.000000
  0.570000  0.000000  0.000000
  0.580000  0.000000  0.000000
  0.590000  0.000000  0.000000
  0.600000  0.000000  0.000000
  0.610000  0.000000  0.000000
  0.620000  0.000000  0.000000
  0.630000  0.000000  0.000000
  0.640000  0.000000  0.000000
  0.650000  0.000000  0.000000
  0.660000  0.000000  0.000000
  0.670000  0.000000  0.000000
  0.680000  0.000000  0.000000
  0.690000  0.000000  0.000000
  0.700000  0.000000  0.000000
  0.710000  0.000000  0.000000
  0.720000  0.000000  0.000000
  0.730000  0.000000  0.000000
  0.740000  0.000000  0.000000
  0.750000  0.000000  0.000000
  0.760000  0.000000  0.000000
  0.770000  0.000000  0.000000
  0.780000  0.000000  0.000000
  0.790000  0.000000  0.000000
  0.800000  0.000000  0.000000
  0.700000  0.010000  0.000000
  0.700000  0.020000  0.000000
  0.700000  0.030000  0.000000
  0.700000  0.040000  0.000000
  0.700000  0.050000  0.000000
  0.700000  0.060000  0.000000
  0.700000  0.070000  0.000000
  0.700000  0.080000  0.000000
  0.700000  0.090000  0.000000
  0.700000  0.100000  0.000000
  0.700000  0.110000  0.000000
  0.700000  0.120000  0.000000
  0.700000  0.130000  0.000000
  0.700000  0.140000  0.000000
  0.700000  0.150000  0.000000
  0.700000  0.160000  0.000000
  0.700000  0.170000  0.000000
  0.700000  0.180000  0.000000
  0.700000  0.190000  0.000000
  0.700000  0.200000  0.000000
  0.700000  0.210000  0.000000
  0.700000  0.220000  0.000000
  0.700000  0.230000  0.000000
  0.700000  0.240000  0.000000
  0.700000  0.250000  0.000000
  0.700000  0.260000  0.000000
  0.700000  0.270000  0.000000
  0.700000  0.280000  0.000000
  0.700000  0.290000  0.000000
  0.700000  0.300000  0.000000
  0.700000  0.310000  0.000000
  0.700000  0.320000  0.000000
  0.700000  0.330000  0.000000
  0.700000  0.340000  0.000000
  0.700000  0.350000  0.000000
  0.700000  0.360000  0.000000
  0.700000  0.370000  0.000000
  0.700000  0.380000  0.000000
  0.700000  0.390000  0.000000
  0.700000  0.400000  0.000000
  0.700000  0.410000  0.000000
  0.700000  0.420000  0.000000
  0.700000  0.430000  0.000000
  0.700000  0.440000  0.000000
  0.700000  0.450000  0.000000
  0.700000  0.460000  0.000000
  0.700000  0.470000  0.000000
  0.700000  0.480000  0.000000
  0.700000  0.490000  0.000000
  0.700000  0.500000  0.000000
  0.023443  0.008747  0.000000
  0.026439  0.014859  0.000000
  0.052775  0.016608  0.000000
  0.010273  0.009750  0.000000
  0.069878  0.017209  0.000000
  0.011156  0.017333  0.000000
  0.080340  0.024207  0.000000
  0.069956  0.008882  0.000000
  0.114157  0.024802  0.000000
  0.100242  0.024841  0.000000
  0.103697  0.027631  0.000000
  0.014597  0.023423  0.000000
  0.034207  0.029893  0.000000
  0.007182  0.032537  0.000000
  0.014590  0.042297  0.000000
  0.024473  0.037553  0.000000
  0.059614  0.047590  0.000000
  0.010300  0.047249  0.000000
  0.060803  0.035391  0.000000
  0.018404  0.052473  0.000000
  0.030343  0.046345  0.000000
  0.021390  0.063326  0.000000
  0.008410  0.059832  0.000000
  0.014719  0.072880  0.000000
  0.011972  0.067855  0.000000
  0.040363  0.078742  0.000000
  0.028156  0.073069  0.000000
  0.027963  0.070823  0.000000
  0.033476  0.059757  0.000000
  0.044859  0.070915  0.000000
  0.058435  0.009514  0.000000
  0.035785  0.011345  0.000000
  0.082103  0.011823  0.000000
  0.086128  0.023891  0.000000
  0.108433  0.011496  0.000000
  0.127580  0.014982  0.000000
  0.136787  0.008630  0.000000
  0.087945  0.009711  0.000000
  0.113762  0.016792  0.000000
  0.094105  0.017862  0.000000
  0.060711  0.030028  0.000000
  0.046015  0.008512  0.000000
  0.092558  0.034567  0.000000
  0.038135  0.018980  0.000000
  0.071500  0.031800  0.000000
  0.019449  0.031212  0.000000
  0.026758  0.025142  0.000000
  0.048098  0.022670  0.000000
  0.070987  0.041810  0.000000
  0.039395  0.035386  0.000000
  0.086196  0.041555  0.000000
  0.048216  0.029320  0.000000
  0.027599  0.051135  0.000000
  0.044684  0.052173  0.000000
  0.039998  0.062350  0.000000
  0.062064  0.063648  0.000000
  0.041211  0.043763  0.000000
  0.049659  0.059919  0.000000
  0.054876  0.067872  0.000000
  0.072881  0.075609  0.000000
  0.178596  0.009457  0.000000
  0.121896  0.007908  0.000000
  0.170553  0.010487  0.000000
  0.132448  0.019140  0.000000
  0.155861  0.008124  0.000000
  0.207441  0.011955  0.000000
  0.236548  0.010638  0.000000
  0.168091  0.023340  0.000000
  0.138807  0.026105  0.000000
  0.101724  0.009251  0.000000
  0.152394  0.026454  0.000000
  0.144932  0.013596  0.000000
  0.117285  0.033454  0.000000
  0.127187  0.057607  0.000000
  0.152076  0.040943  0.000000
  0.065390  0.020609  0.000000
  0.098951  0.041977  0.000000
  0.080415  0.035556  0.000000
  0.075514  0.048731  0.000000
  0.049749  0.041634  0.000000
  0.090442  0.050900  0.000000
  0.082001  0.064470  0.000000
  0.081474  0.053984  0.000000
  0.058082  0.049982  0.000000
  0.071092  0.064950  0.000000
  0.069222  0.057231  0.000000
  0.069832  0.077983  0.000000
  0.085788  0.077059  0.000000
  0.093004  0.061462  0.000000
  0.060184  0.077443  0.000000
  0.225824  0.014425  0.000000
  0.193151  0.009087  0.000000
  0.242106  0.014799  0.000000
  0.194254  0.013549  0.000000
  0.235589  0.039819  0.000000
  0.221909  0.010040  0.000000
  0.213584  0.035183  0.000000
  0.211169  0.014025  0.000000
  0.191166  0.024510  0.000000
  0.124520  0.027840  0.000000
  0.202482  0.029009  0.000000
  0.150925  0.015855  0.000000
  0.164799  0.027930  0.000000
  0.107639  0.039201  0.000000
  0.119363  0.048721  0.000000
  0.181410  0.018368  0.000000
  0.127652  0.035415  0.000000
  0.139729  0.031748  0.000000
  0.126197  0.046069  0.000000
  0.136907  0.052022  0.000000
  0.157793  0.045521  0.000000
  0.113292  0.045278  0.000000
  0.099853  0.050046  0.000000
  0.140118  0.057766  0.000000
  0.108757  0.060655  0.000000
  0.094743  0.065365  0.000000
  0.102293  0.073925  0.000000
  0.108545  0.056660  0.000000
  0.094299  0.077942  0.000000
  0.114523  0.068173  0.000000
  0.266908  0.009688  0.000000
  0.249946  0.011162  0.000000
  0.256909  0.013404  0.000000
  0.226814  0.022331  0.000000
  0.321785  0.016880  0.000000
  0.226219  0.029942  0.000000
  0.214236  0.025153  0.000000
  0.242331  0.024238  0.000000
  0.203186  0.022507  0.000000
  0.261707  0.030774  0.000000
  0.182758  0.024212  0.000000
  0.237090  0.028324  0.000000
  0.222073  0.037122  0.000000
  0.196629  0.041323  0.000000
  0.209650  0.053878  0.000000
  0.163537  0.015599  0.000000
  0.183181  0.034591  0.000000
  0.153150  0.030352  0.000000
  0.182210  0.049349  0.000000
  0.136604  0.041553  0.000000
  0.144797  0.043982  0.000000
  0.169272  0.040855  0.000000
  0.153555  0.059481  0.000000
  0.106483  0.073680  0.000000
  0.150897  0.074159  0.000000
  0.127337  0.064643  0.000000
  0.141269  0.072317  0.000000
  0.172008  0.068103  0.000000
  0.149353  0.075844  0.000000
  0.123565  0.069065  0.000000
  0.321628  0.010158  0.000000
  0.292912  0.013702  0.000000
  0.345540  0.016350  0.000000
  0.320461  0.027533  0.000000
  0.371252  0.011846  0.000000
  0.321592  0.038465  0.000000
  0.338508  0.010763  0.000000
  0.306137  0.011321  0.000000
  0.309973  0.012634  0.000000
  0.341621  0.025163  0.000000
  0.278969  0.019285  0.000000
  0.289803  0.010227  0.000000
  0.278886  0.012474  0.000000
  0.246460  0.038531  0.000000
  0.222268  0.051444  0.000000
  0.231772  0.044249  0.000000
  0.171596  0.034936  0.000000
  0.265838  0.036389  0.000000
  0.183060  0.039880  0.000000
  0.212340  0.042816  0.000000
  0.197590  0.036695  0.000000
  0.204820  0.047403  0.000000
  0.146033  0.062313  0.000000
  0.191967  0.071647  0.000000
  0.182931  0.060079  0.000000
  0.172638  0.050009  0.000000
  0.167098  0.058329  0.000000
  0.160203  0.050945  0.000000
  0.131892  0.075260  0.000000
  0.165343  0.066002  0.000000
  0.397406  0.014418  0.000000
  0.333254  0.013023  0.000000
  0.354090  0.010471  0.000000
  0.326125  0.026063  0.000000
  0.445677  0.023656  0.000000
  0.378344  0.010816  0.000000
  0.431159  0.013920  0.000000
  0.359347  0.012276  0.000000
  0.366151  0.021525  0.000000
  0.335186  0.026046  0.000000
  0.356619  0.023207  0.000000
  0.359922  0.030779  0.000000
  0.306284  0.023400  0.000000
  0.258856  0.023802  0.000000
  0.268060  0.016602  0.000000
  0.251291  0.027111  0.000000
  0.249385  0.041299  0.000000
  0.291792  0.030873  0.000000
  0.240745  0.056837  0.000000
  0.241086  0.051160  0.000000
  0.254621  0.053513  0.000000
  0.230486  0.057480  0.000000
  0.189509  0.053662  0.000000
  0.220472  0.055650  0.000000
  0.211440  0.069330  0.000000
  0.204123  0.085605  0.000000
  0.202862  0.067372  0.000000
  0.196667  0.055567  0.000000
  0.183338  0.066419  0.000000
  0.173229  0.074427  0.000000
  0.434825  0.010473  0.000000
  0.419756  0.012519  0.000000
  0.469541  0.026960  0.000000
  0.446972  0.011895  0.000000
  0.520109  0.028651  0.000000
  0.467298  0.013170  0.000000
  0.480470  0.020232  0.000000
  0.436868  0.022012  0.000000
  0.453821  0.011304  0.000000
  0.429184  0.026732  0.000000
  0.414168  0.010838  0.000000
  0.396008  0.010273  0.000000
  0.388744  0.022869  0.000000
  0.337234  0.039637  0.000000
  0.341101  0.039988  0.000000
  0.290581  0.023931  0.000000
  0.275656  0.027561  0.000000
  0.327542  0.049664  0.000000
  0.302186  0.024252  0.000000
  0.318453  0.043845  0.000000
  0.267582  0.049703  0.000000
  0.273941  0.039894  0.000000
  0.283436  0.047571  0.000000
  0.238508  0.066347  0.000000
  0.258977  0.044860  0.000000
  0.251700  0.065362  0.000000
  0.250429  0.074137  0.000000
  0.221145  0.073287  0.000000
  0.202173  0.064104  0.000000
  0.223524  0.066700  0.000000
  0.531827  0.011103  0.000000
  0.502077  0.013890  0.000000
  0.532687  0.026074  0.000000
  0.508668  0.011442  0.000000
  0.558367  0.030054  0.000000
  0.519125  0.010442  0.000000
  0.528116  0.023152  0.000000
  0.480450  0.015722  0.000000
  0.487042  0.007776  0.000000
  0.488091  0.030267  0.000000
  0.417664  0.022926  0.000000
  0.431174  0.038658  0.000000
  0.397054  0.026986  0.000000
  0.418897  0.028983  0.000000
  0.407012  0.014909  0.000000
  0.349492  0.030571  0.000000
  0.373880  0.025179  0.000000
  0.352363  0.048993  0.000000
  0.384253  0.050524  0.000000
  0.332690  0.047819  0.000000
  0.312556  0.033755  0.000000
  0.295099  0.038123  0.000000
  0.283982  0.045693  0.000000
  0.280467  0.032947  0.000000
  0.300075  0.045783  0.000000
  0.267921  0.071019  0.000000
  0.258172  0.058997  0.000000
  0.264753  0.068882  0.000000
  0.283924  0.057420  0.000000
  0.239612  0.071112  0.000000
  0.603778  0.020651  0.000000
  0.532267  0.036547  0.000000
  0.615522  0.019798  0.000000
  0.589531  0.011975  0.000000
  0.618105  0.039419  0.000000
  0.575205  0.010051  0.000000
  0.623051  0.022635  0.000000
  0.559182  0.019068  0.000000
  0.546754  0.026315  0.000000
  0.496163  0.014945  0.000000
  0.504602  0.040307  0.000000
  0.490687  0.022009  0.000000
  0.405846  0.028072  0.000000
  0.468019  0.011055  0.000000
  0.453728  0.019760  0.000000
  0.465103  0.025293  0.000000
  0.386381  0.034875  0.000000
  0.383792  0.014795  0.000000
  0.379230  0.028300  0.000000
  0.352981  0.040369  0.000000
  0.374241  0.039173  0.000000
  0.329009  0.061895  0.000000
  0.363603  0.042087  0.000000
  0.312011  0.050559  0.000000
  0.348028  0.063544  0.000000
  0.327084  0.061250  0.000000
  0.304721  0.038670  0.000000
  0.300244  0.060497  0.000000
  0.269373  0.055930  0.000000
  0.282696  0.062630  0.000000
  0.634735  0.047803  0.000000
  0.602400  0.047046  0.000000
  0.663597  0.022561  0.000000
  0.621578  0.010603  0.000000
  0.651813  0.027142  0.000000
  0.627973  0.020365  0.000000
  0.637234  0.017490  0.000000
  0.634121  0.008606  0.000000
  0.601544  0.010347  0.000000
  0.562033  0.011004  0.000000
  0.599683  0.022709  0.000000
  0.520524  0.016763  0.000000
  0.545984  0.013034  0.000000
  0.557779  0.056585  0.000000
  0.519480  0.057427  0.000000
  0.465008  0.037663  0.000000
  0.478222  0.038442  0.000000
  0.447373  0.033024  0.000000
  0.433316  0.034255  0.000000
  0.419678  0.065580  0.000000
  0.423766  0.055554  0.000000
  0.405460  0.045868  0.000000
  0.369043  0.040623  0.000000
  0.377039  0.063067  0.000000
  0.344973  0.053582  0.000000
  0.314062  0.060955  0.000000
  0.369507  0.061113  0.000000
  0.303616  0.052394  0.000000
  0.296684  0.072998  0.000000
  0.292854  0.061236  0.000000
  0.669314  0.038554  0.000000
  0.665506  0.010801  0.000000
  0.677066  0.050758  0.000000
  0.673153  0.010926  0.000000
  0.682169  0.012190  0.000000
  0.672106  0.022229  0.000000
  0.654409  0.019654  0.000000
  0.644695  0.036119  0.000000
  0.654443  0.010583  0.000000
  0.645408  0.050333  0.000000
  0.630205  0.033764  0.000000
  0.610702  0.010906  0.000000
  0.592407  0.031899  0.000000
  0.586383  0.012966  0.000000
  0.537856  0.012669  0.000000
  0.545033  0.039458  0.000000
  0.521747  0.041676  0.000000
  0.534631  0.040569  0.000000
  0.517008  0.052680  0.000000
  0.510774  0.032200  0.000000
  0.462020  0.046309  0.000000
  0.475555  0.036416  0.000000
  0.418765  0.046400  0.000000
  0.419503  0.041479  0.000000
  0.408979  0.033190  0.000000
  0.378066  0.051864  0.000000
  0.348640  0.058914  0.000000
  0.369244  0.060704  0.000000
  0.361501  0.054228  0.000000
  0.333438  0.066958  0.000000
  0.678602  0.068475  0.000000
  0.668180  0.144402  0.000000
  0.687100  0.084527  0.000000
  0.689554  0.036998  0.000000
  0.665086  0.138559  0.000000
  0.675887  0.075172  0.000000
  0.685251  0.081419  0.000000
  0.673647  0.091431  0.000000
  0.658849  0.040598  0.000000
  0.661160  0.059411  0.000000
  0.664153  0.032952  0.000000
  0.645927  0.012126  0.000000
  0.624198  0.076916  0.000000
  0.640721  0.088135  0.000000
  0.576471  0.037710  0.000000
  0.614311  0.063511  0.000000
  0.581773  0.028911  0.000000
  0.576570  0.017132  0.000000
  0.552541  0.011639  0.000000
  0.615236  0.046297  0.000000
  0.546363  0.027862  0.000000
  0.537729  0.050850  0.000000
  0.499903  0.029915  0.000000
  0.487883  0.065291  0.000000
  0.472785  0.054078  0.000000
  0.434135  0.051666  0.000000
  0.407907  0.045074  0.000000
  0.394456  0.036465  0.000000
  0.391142  0.043634  0.000000
  0.389017  0.059284  0.000000
  0.676539  0.131147  0.000000
  0.651037  0.153806  0.000000
  0.688849  0.047140  0.000000
  0.690484  0.072651  0.000000
  0.638254  0.196165  0.000000
  0.676352  0.029746  0.000000
  0.690418  0.145973  0.000000
  0.679299  0.153027  0.000000
  0.653383  0.140143  0.000000
  0.662075  0.159709  0.000000
  0.691353  0.093802  0.000000
  0.663801  0.122333  0.000000
  0.668536  0.070175  0.000000
  0.649217  0.160385  0.000000
  0.655686  0.078499  0.000000
  0.652628  0.040165  0.000000
  0.646928  0.093869  0.000000
  0.633945  0.077154  0.000000
  0.645302  0.071284  0.000000
  0.609209  0.032694  0.000000
  0.590119  0.028652  0.000000
  0.570752  0.021621  0.000000
  0.560161  0.045258  0.000000
  0.490179  0.054754  0.000000
  0.491398  0.040981  0.000000
  0.481708  0.053639  0.000000
  0.447145  0.040975  0.000000
  0.438682  0.048995  0.000000
  0.400937  0.057725  0.000000
  0.396401  0.054738  0.000000
  0.690261  0.119270  0.000000
  0.641345  0.234308  0.000000
  0.637075  0.198506  0.000000
  0.666790  0.194456  0.000000
  0.684494  0.228467  0.000000
  0.684227  0.103860  0.000000
  0.689292  0.011216  0.000000
  0.637242  0.189842  0.000000
  0.680550  0.179735  0.000000
  0.686117  0.122208  0.000000
  0.690089  0.189093  0.000000
  0.682993  0.039320  0.000000
  0.684273  0.024353  0.000000
  0.671986  0.115961  0.000000
  0.669178  0.056667  0.000000
  0.685879  0.141174  0.000000
  0.665246  0.095064  0.000000
  0.643345  0.065820  0.000000
  0.659416  0.089420  0.000000
  0.641682  0.023769  0.000000
  0.651267  0.052310  0.000000
  0.605991  0.058955  0.000000
  0.585859  0.054702  0.000000
  0.563619  0.048756  0.000000
  0.562332  0.031912  0.000000
  0.581482  0.042438  0.000000
  0.509728  0.022876  0.000000
  0.490850  0.039981  0.000000
  0.455754  0.031775  0.000000
  0.453905  0.055799  0.000000
  0.688617  0.172805  0.000000
  0.686632  0.059322  0.000000
  0.684637  0.270485  0.000000
  0.683672  0.376471  0.000000
  0.688563  0.106577  0.000000
  0.689690  0.023706  0.000000
  0.660716  0.272450  0.000000
  0.685980  0.294027  0.000000
  0.688046  0.060251  0.000000
  0.674754  0.178171  0.000000
  0.669221  0.256896  0.000000
  0.666280  0.163816  0.000000
  0.681603  0.223149  0.000000
  0.628411  0.243401  0.000000
  0.640218  0.233227  0.000000
  0.666851  0.208222  0.000000
  0.631364  0.163955  0.000000
  0.674286  0.047212  0.000000
  0.662484  0.119582  0.000000
  0.649296  0.117195  0.000000
  0.668363  0.082964  0.000000
  0.658329  0.056134  0.000000
  0.637954  0.060187  0.000000
  0.642920  0.092883  0.000000
  0.601399  0.053267  0.000000
  0.588239  0.051250  0.000000
  0.571166  0.032905  0.000000
  0.513559  0.039792  0.000000
  0.503698  0.052829  0.000000
  0.452767  0.047027  0.000000
  0.652502  0.347548  0.000000
  0.578272  0.386450  0.000000
  0.649591  0.238771  0.000000
  0.613307  0.302220  0.000000
  0.545294  0.455079  0.000000
  0.634249  0.322578  0.000000
  0.676719  0.287478  0.000000
  0.684349  0.303574  0.000000
  0.630774  0.379512  0.000000
  0.643565  0.275166  0.000000
  0.669753  0.194516  0.000000
  0.676563  0.245178  0.000000
  0.653514  0.242785  0.000000
  0.604563  0.190201  0.000000
  0.656256  0.250381  0.000000
  0.691405  0.207031  0.000000
  0.660482  0.194853  0.000000
  0.677607  0.206179  0.000000
  0.677541  0.232387  0.000000
  0.671358  0.151452  0.000000
  0.668597  0.167988  0.000000
  0.632744  0.139122  0.000000
  0.662996  0.071874  0.000000
  0.678210  0.100464  0.000000
  0.622715  0.081257  0.000000
  0.621828  0.052278  0.000000
  0.611296  0.032358  0.000000
  0.595772  0.042825  0.000000
  0.537788  0.052858  0.000000
  0.470672  0.051979  0.000000
  0.629765  0.292195  0.000000
  0.648811  0.320701  0.000000
  0.677666  0.257763  0.000000
  0.643935  0.384353  0.000000
  0.683852  0.200649  0.000000
  0.688141  0.166313  0.000000
  0.666453  0.324064  0.000000
  0.661309  0.360455  0.000000
  0.678202  0.406086  0.000000
  0.538016  0.310764  0.000000
  0.623559  0.237406  0.000000
  0.560758  0.356375  0.000000
  0.623808  0.312369  0.000000
  0.678395  0.285885  0.000000
  0.664160  0.300430  0.000000
  0.667208  0.262187  0.000000
  0.641804  0.243478  0.000000
  0.668968  0.179555  0.000000
  0.683244  0.256397  0.000000
  0.668472  0.286461  0.000000
  0.620695  0.171009  0.000000
  0.641232  0.164498  0.000000
  0.677358  0.118910  0.000000
  0.635628  0.154072  0.000000
  0.670131  0.103080  0.000000
  0.650454  0.077481  0.000000
  0.637869  0.034162  0.000000
  0.579037  0.057925  0.000000
  0.551259  0.045010  0.000000
  0.664341  0.327147  0.000000
  0.587285  0.367548  0.000000
  0.644775  0.482401  0.000000
  0.645028  0.487041  0.000000
  0.609074  0.295239  0.000000
  0.679659  0.336123  0.000000
  0.615163  0.373359  0.000000
  0.669387  0.306198  0.000000
  0.673927  0.333935  0.000000
  0.613130  0.199429  0.000000
  0.634818  0.250495  0.000000
  0.618243  0.238239  0.000000
  0.682915  0.149396  0.000000
  0.655209  0.219707  0.000000
  0.637425  0.172598  0.000000
  0.653691  0.180770  0.000000
  0.667635  0.131743  0.000000
  0.661606  0.104987  0.000000
  0.644030  0.104234  0.000000
  0.627308  0.041615  0.000000
  0.618003  0.058570  0.000000
  0.657441  0.481091  0.000000
  0.657319  0.471636  0.000000
  0.619661  0.322689  0.000000
  0.664965  0.414975  0.000000
  0.598983  0.369129  0.000000
  0.594846  0.334073  0.000000
  0.638625  0.362131  0.000000
  0.640925  0.324568  0.000000
  0.626087  0.310565  0.000000
  0.630138  0.278756  0.000000
  0.646559  0.211477  0.000000
  0.630697  0.179775  0.000000
  0.619350  0.207196  0.000000
  0.655365  0.181336  0.000000
  0.652028  0.114359  0.000000
  0.651571  0.145062  0.000000
  0.634119  0.055589  0.000000
 -0.010000  0.500000  0.000000
 -0.010000  0.490000  0.000000
 -0.010000  0.480000  0.000000
 -0.010000  0.470000  0.000000
 -0.010000  0.460000  0.000000
 -0.010000  0.450000  0.000000
 -0.010000  0.440000  0.000000
 -0.010000  0.430000  0.000000
 -0.010000  0.420000  0.000000
 -0.010000  0.410000  0.000000
 -0.010000  0.400000  0.000000
 -0.010000  0.390000  0.000000
 -0.010000  0.380000  0.000000
 -0.010000  0.370000  0.000000
 -0.010000  0.360000  0.000000
 -0.010000  0.350000  0.000000
 -0.010000  0.340000  0.000000
 -0.010000  0.330000  0.000000
 -0.010000  0.320000  0.000000
 -0.010000  0.310000  0.000000
 -0.010000  0.300000  0.000000
 -0.010000  0.290000  0.000000
 -0.010000  0.280000  0.000000
 -0.010000  0.270000  0.000000
 -0.010000  0.260000  0.000000
 -0.010000  0.250000  0.000000
 -0.010000  0.240000  0.000000
 -0.010000  0.230000  0.000000
 -0.010000  0.220000  0.000000
 -0.010000  0.210000  0.000000
 -0.010000  0.200000  0.000000
 -0.010000  0.190000  0.000000
 -0.010000  0.180000  0.000000
 -0.010000  0.170000  0.000000
 -0.010000  0.160000  0.000000
 -0.010000  0.150000  0.000000
 -0.010000  0.140000  0.000000
 -0.010000  0.130000  0.000000
 -0.010000  0.120000  0.000000
 -0.010000  0.110000  0.000000
 -0.010000  0.100000  0.000000
 -0.010000  0.090000  0.000000
 -0.010000  0.080000  0.000000
 -0.010000  0.070000  0.000000
 -0.010000  0.060000  0.000000
 -0.010000  0.050000  0.000000
 -0.010000  0.040000  0.000000
 -0.010000  0.030000  0.000000
 -0.010000  0.020000  0.000000
 -0.010000  0.010000  0.000000
 -0.100000 -0.010000  0.000000
 -0.090000 -0.010000  0.000000
 -0.080000 -0.010000  0.000000
 -0.070000 -0.010000  0.000000
 -0.060000 -0.010000  0.000000
 -0.050000 -0.010000  0.000000
 -0.040000 -0.010000  0.000000
 -0.030000 -0.010000  0.000000
 -0.020000 -0.010000  0.000000
 -0.010000 -0.010000  0.000000
 -0.000000 -0.010000  0.000000
  0.010000 -0.010000  0.000000
  0.020000 -0.010000  0.000000
  0.030000 -0.010000  0.000000
  0.040000 -0.010000  0.000000
  0.050000 -0.010000  0.000000
  0.060000 -0.010000  0.000000
  0.070000 -0.010000  0.000000
  0.080000 -0.010000  0.000000
  0.090000 -0.010000  0.000000
  0.100000 -0.010000  0.000000
  0.110000 -0.010000  0.000000
  0.120000 -0.010000  0.000000
  0.130000 -0.010000  0.000000
  0.140000 -0.010000  0.000000
  0.150000 -0.010000  0.000000
  0.160000 -0.010000  0.000000
  0.170000 -0.010000  0.000000
  0.180000 -0.010000  0.000000
  0.190000 -0.010000  0.000000
  0.200000 -0.010000  0.000000
  0.210000 -0.010000  0.000000
  0.220000 -0.010000  0.000000