<?xml version="1.0" encoding="UTF-8"?>
<VTKFile type="UnstructuredGrid" version="1.0" byte_order="LittleEndian">
<UnstructuredGrid>
  <Piece NumberOfPoints="1555" NumberOfCells="1555">
      <PointData>
        <DataArray type="Int32" Name="Type" format="ascii">
 1 1 1 1 1 1 1 1 1 1
 1 1 1 1 1 1 1 1 1 1
 1 1 1 1 1 1 1 1 1 1
 1 1 1 1 1 1 1 1 1 1
 1 1 1 1 1 1 1 1 1 1
 1 1 1 1 1 1 1 1 1 1
 1 3 3 3 3 3 3 3 3 3
 3 3 3 3 3 3 3 3 3 3
 3 3 3 3 3 3 3 3 3 3
 3 3 3 3 3 3 3 3 3 3
 3 3 3 3 3 3 3 3 3 3
 3 3 3 3 3 3 3 3 3 3
 3 3 3 3 3 3 3 3 3 3
 1 1 1 1 1 1 1 1 1 1
 1 1 1 1 1 1 1 1 1 1
 1 1 1 1 1 1 1 1 1 1
 1 1 1 1 1 1 1 1 1 1
 1 1 1 1 1 1 1 1 1 1
 1 1 1 1 1 1 1 1 1 1
 1 2 2 2 2 2 2 2 2 2
 2 2 2 2 2 2 2 2 2 2
 2 2 2 2 2 2 2 2 2 2
 2 2 2 2 2 2 2 2 2 2
 2 2 2 2 2 2 2 2 2 2
 2 2 2 2 2 2 2 2 2 2
 2 2 2 2 2 2 2 2 2 2
 2 2 2 2 2 2 2 2 2 2
 2 2 2 2 2 2 2 2 2 2
 2 2 2 2 2 2 2 2 2 2
 2 2 2 2 2 2 2 2 2 2
 2 2 2 2 2 2 2 2 2 2
 2 2 2 2 2 2 2 2 2 2
 2 2 2 2 2 2 2 2 2 2
 2 2 2 2 2 2 2 2 2 2
 2 2 2 2 2 2 2 2 2 2
 2 2 2 2 2 2 2 2 2 2
 2 2 2 2 2 2 2 2 2 2
 2 2 2 2 2 2 2 2 2 2
 2 2 2 2 2 2 2 2 2 2
 2 2 2 2 2 2 2 2 2 2
 2 2 2 2 2 2 2 2 2 2
 2 2 2 2 2 2 2 2 2 2
 2 2 2 2 2 2 2 2 2 2
 2 2 2 2 2 2 2 2 2 2
 2 2 2 2 2 2 2 2 2 2
 2 2 2 2 2 2 2 2 2 2
 2 2 2 2 2 2 2 2 2 2
 2 2 2 2 2 2 2 2 2 2
 2 2 2 2 2 2 2 2 2 2
 2 2 2 2 2 2 2 2 2 2
 2 2 2 2 2 2 2 2 2 2
 2 2 2 2 2 2 2 2 2 2
 2 2 2 2 2 2 2 2 2 2
 2 2 2 2 2 2 2 2 2 2
 2 2 2 2 2 2 2 2 2 2
 2 2 2 2 2 2 2 2 2 2
 2 2 2 2 2 2 2 2 2 2
 2 2 2 2 2 2 2 2 2 2
 2 2 2 2 2 2 2 2 2 2
 2 2 2 2 2 2 2 2 2 2
 2 2 2 2 2 2 2 2 2 2
 2 2 2 2 2 2 2 2 2 2
 2 2 2 2 2 2 2 2 2 2
 2 2 2 2 2 2 2 2 2 2
 2 2 2 2 2 2 2 2 2 2
 2 2 2 2 2 2 2 2 2 2
 2 2 2 2 2 2 2 2 2 2
 2 2 2 2 2 2 2 2 2 2
 2 2 2 2 2 2 2 2 2 2
 2 2 2 2 2 2 2 2 2 2
 2 2 2 2 2 2 2 2 2 2
 2 2 2 2 2 2 2 2 2 2
 2 2 2 2 2 2 2 2 2 2
 2 2 2 2 2 2 2 2 2 2
 2 2 2 2 2 2 2 2 2 2
 2 2 2 2 2 2 2 2 2 2
 2 2 2 2 2 2 2 2 2 2
 2 2 2 2 2 2 2 2 2 2
 2 2 2 2 2 2 2 2 2 2
 2 0 0 0 0 0 0 0 0 0
 0 0 0 0 0 0 0 0 0 0
 0 0 0 0 0 0 0 0 0 0
 0 0 0 0 0 0 0 0 0 0
 0 0 0 0 0 0 0 0 0 0
 0 0 0 0 0 0 0 0 0 0
 0 0 0 0 0 0 0 0 0 0
 0 0 0 0 0 0 0 0 0 0
 0 0 0 0 0 0 0 0 0 0
 0 0 0 0 0 0 0 0 0 0
 0 0 0 0 0 0 0 0 0 0
 0 0 0 0 0 0 0 0 0 0
 0 0 0 0 0 0 0 0 0 0
 0 0 0 0 0 0 0 0 0 0
 0 0 0 0 0 0 0 0 0 0
 0 0 0 0 0 0 0 0 0 0
 0 0 0 0 0 0 0 0 0 0
 0 0 0 0 0 0 0 0 0 0
 0 0 0 0 0 0 0 0 0 0
 0 0 0 0 0 0 0 0 0 0
 0 0 0 0 0 0 0 0 0 0
 0 0 0 0 0 0 0 0 0 0
 0 0 0 0 0 0 0 0 0 0
 0 0 0 0 0 0 0 0 0 0
 0 0 0 0 0 0 0 0 0 0
 0 0 0 0 0 0 0 0 0 0
 0 0 0 0 0 0 0 0 0 0
 0 0 0 0 0 0 0 0 0 0
 0 0 0 0 0 0 0 0 0 0
 0 0 0 0 0 0 0 0 0 0
 0 0 0 0 0 0 0 0 0 0
 0 0 0 0 0 0 0 0 0 0
 0 0 0 0 0 0 0 0 0 0
 0 0 0 0 0 0 0 0 0 0
 0 0 0 0 0 0 0 0 0 0
 0 0 0 0 0 0 0 0 0 0
 0 0 0 0 0 0 0 0 0 0
 0 0 0 0 0 0 0 0 0 0
 0 0 0 0 0 0 0 0 0 0
 0 0 0 0 0 0 0 0 0 0
 0 0 0 0 0 0 0 0 0 0
 0 0 0 0 0 0 0 0 0 0
 0 0 0 0 0 0 0 0 0 0
 0 0 0 0 0 0 0 0 0 0
 0 0 0 0 0 0 0 0 0 0
 0 0 0 0 0 0 0 0 0 0
 0 0 0 0 0 0 0 0 0 0
 0 0 0 0 0 0 0 0 0 0
 0 0 0 0 0 0 0 0 0 0
 0 0 0 0 0 0 0 0 0 0
 0 0 0 0 0 0 0 0 0 0
 0 0 0 0 0 0 0 0 0 0
 0 0 0 0 0 0 0 0 0 0
 0 0 0 0 0 0 0 0 0 0
 0 0 0 0 0 0 0 0 0 0
 0 0 0 0 0 0 0 0 0 0
 0 0 0 0 0 0 0 0 0 0
 0 0 0 0 0 0 0 0 0 0
 0 0 0 0 0 0 0 0 0 0
 0 0 0 0 0 0 0 0 0 0
 0 0 0 0 0 0 0 0 0 0
 0 0 0 0 0 0 0 0 0 0
 0 0 0 0 0 0 0 0 0 0
 0 0 0 0 0 0 0 0 0 0
 0 0 0 0 0 0 0 0 0 0
 0 0 0 0 0 0 0 0 0 0
 0 0 0 0 0 0 0 0 0 0
 0 0 0 0 0 0 0 0 0 0
 0 0 0 0 0 0 0 0 0 0
 0 0 0 0 0 0 0 0 0 0
 0 0 0 0 0 0 0 0 0 0
 0 0 0 0 0 0 0 0 0 0
 0 0 0 0 0 0 0 0 0 0
 0 0 0 0 0 0 0 0 0 0
 0 0 0 0 0 0 0 0 0 0
 0 0 0 0 0 0 0 0 0 0
 0 0 0 0 0
        </DataArray>
      </PointData>
      <Points>
        <DataArray type="Float32" NumberOfComponents="3" format="ascii">
  0.000000  0.500000  0.000000
  0.000000  0.490000  0.000000
  0.000000  0.480000  0.000000
  0.000000  0.470000  0.000000
  0.000000  0.460000  0.000000
  0.000000  0.450000  0.000000
  0.000000  0.440000  0.000000
  0.000000  0.430000  0.000000
  0.000000  0.420000  0.000000
  0.000000  0.410000  0.000000
  0.000000  0.400000  0.000000
  0.000000  0.390000  0.000000
  0.000000  0.380000  0.000000
  0.000000  0.370000  0.000000
  0.000000  0.360000  0.000000
  0.000000  0.350000  0.000000
  0.000000  0.340000  0.000000
  0.000000  0.330000  0.000000
  0.000000  0.320000  0.000000
  0.000000  0.310000  0.000000
  0.000000  0.300000  0.000000
  0.000000  0.290000  0.000000
  0.000000  0.280000  0.000000
  0.000000  0.270000  0.000000
  0.000000  0.260000  0.000000
  0.000000  0.250000  0.000000
  0.000000  0.240000  0.000000
  0.000000  0.230000  0.000000
  0.000000  0.220000  0.000000
  0.000000  0.210000  0.000000
  0.000000  0.200000  0.000000
  0.000000  0.190000  0.000000
  0.000000  0.180000  0.000000
  0.000000  0.170000  0.000000
  0.000000  0.160000  0.000000
  0.000000  0.150000  0.000000
  0.000000  0.140000  0.000000
  0.000000  0.130000  0.000000
  0.000000  0.120000  0.000000
  0.000000  0.110000  0.000000
  0.000000  0.100000  0.000000
  0.000000  0.090000  0.000000
  0.000000  0.080000  0.000000
  0.000000  0.070000  0.000000
  0.000000  0.060000  0.000000
  0.000000  0.050000  0.000000
  0.000000  0.040000  0.000000
  0.000000  0.030000  0.000000
  0.000000  0.020000  0.000000
  0.000000  0.010000  0.000000
 -0.100000  0.000000  0.000000
 -0.090000  0.000000  0.000000
 -0.080000  0.000000  0.000000
 -0.070000  0.000000  0.000000
 -0.060000  0.000000  0.000000
 -0.050000  0.000000  0.000000
 -0.040000  0.000000  0.000000
 -0.030000  0.000000  0.000000
 -0.020000  0.000000  0.000000
 -0.010000  0.000000  0.000000
 -0.000000  0.000000  0.000000
  0.010000  0.000000  0.000000
  0.020000  0.000000  0.000000
  0.030000  0.000000  0.000000
  0.040000  0.000000  0.000000
  0.050000  0.000000  0.000000
  0.060000  0.000000  0.000000
  0.070000  0.000000  0.000000
  0.080000  0.000000  0.000000
  0.090000  0.000000  0.000000
  0.100000  0.000000  0.000000
  0.110000  0.000000  0.000000
  0.120000  0.000000  0.000000
  0.130000  0.000000  0.000000
  0.140000  0.000000  0.000000
  0.150000  0.000000  0.000000
  0.160000  0.000000  0.000000
  0.170000  0.000000  0.000000
  0.180000  0.000000  0.000000
  0.190000  0.000000  0.000000
  0.200000  0.000000  0.000000
  0.210000  0.000000  0.000000
  0.220000  0.000000  0.000000
  0.230000  0.000000  0.000000
  0.240000  0.000000  0.000000
  0.250000  0.000000  0.000000
  0.260000  0.000000  0.000000
  0.270000  0.000000  0.000000
  0.280000  0.000000  0.000000
  0.290000  0.000000  0.000000
  0.300000  0.000000  0.000000
  0.310000  0.000000  0.000000
  0.320000  0.000000  0.000000
  0.330000  0.000000  0.000000
  0.340000  0.000000  0.000000
  0.350000  0.000000  0.000000
  0.360000  0.000000  0.000000
  0.370000  0.000000  0.000000
  0.380000  0.000000  0.000000
  0.390000  0.000000  0.000000
  0.400000  0.000000  0.000000
  0.410000  0.000000  0.000000
  0.420000  0.000000  0.000000
  0.430000  0.000000  0.000000
  0.440000  0.000000  0.000000
  0.450000  0.000000  0.000000
  0.460000  0.000000  0.000000
  0.470000  0.000000  0.000000
  0.480000  0.000000  0.000000
  0.490000  0.000000  0.000000
  0.500000  0.000000  0.000000
  0.510000  0.000000  0.000000
  0.520000  0.000000  0.000000
  0.530000  0.000000  0.000000
  0.540000  0.000000  0.000000
  0.550000  0.000000  0.000000
  0.560000  0.000000  0.000000
  0.570000  0.000000  0.000000
  0.580000  0.000000  0.000000
  0.590000  0.000000  0.000000
  0.600000  0.000000  0.000000
  0.610000  0.000000  0.000000
  0.620000  0.000000  0.000000
  0.630000  0.000000  0.000000
  0.640000  0.000000  0.000000
  0.650000  0.000000  0.000000
  0.660000  0.000000  0.000000
  0.670000  0.000000  0.000000
  0.680000  0.000000  0.000000
  0.690000  0.000000  0.000000
  0.700000  0.000000  0.000000
  0.710000  0.000000  0.000000
  0.720000  0.000000  0.000000
  0.730000  0.000000  0.000000
  0.740000  0.000000  0.000000
  0.750000  0.000000  0.000000
  0.760000  0.000000  0.000000
  0.770000  0.000000  0.000000
  0.780000  0.000000  0.000000
  0.790000  0.000000  0.000000
  0.800000  0.000000  0.000000
  0.700000  0.010000  0.000000
  0.700000  0.020000  0.000000
  0.700000  0.030000  0.000000
  0.700000  0.040000  0.000000
  0.700000  0.050000  0.000000
  0.700000  0.060000  0.000000
  0.700000  0.070000  0.000000
  0.700000  0.080000  0.000000
  0.700000  0.090000  0.000000
  0.700000  0.100000  0.000000
  0.700000  0.110000  0.000000
  0.700000  0.120000  0.000000
  0.700000  0.130000  0.000000
  0.700000  0.140000  0.000000
  0.700000  0.150000  0.000000
  0.700000  0.160000  0.000000
  0.700000  0.170000  0.000000
  0.700000  0.180000  0.000000
  0.700000  0.190000  0.000000
  0.700000  0.200000  0.000000
  0.700000  0.210000  0.000000
  0.700000  0.220000  0.000000
  0.700000  0.230000  0.000000
  0.700000  0.240000  0.000000
  0.700000  0.250000  0.000000
  0.700000  0.260000  0.000000
  0.700000  0.270000  0.000000
  0.700000  0.280000  0.000000
  0.700000  0.290000  0.000000
  0.700000  0.300000  0.000000
  0.700000  0.310000  0.000000
  0.700000  0.320000  0.000000
  0.700000  0.330000  0.000000
  0.700000  0.340000  0.000000
  0.700000  0.350000  0.000000
  0.700000  0.360000  0.000000
  0.700000  0.370000  0.000000
  0.700000  0.380000  0.000000
  0.700000  0.390000  0.000000
  0.700000  0.400000  0.000000
  0.700000  0.410000  0.000000
  0.700000  0.420000  0.000000
  0.700000  0.430000  0.000000
  0.700000  0.440000  0.000000
  0.700000  0.450000  0.000000
  0.700000  0.460000  0.000000
  0.700000  0.470000  0.000000
  0.700000  0.480000  0.000000
  0.700000  0.490000  0.000000
  0.700000  0.500000  0.000000
  0.009643  0.009502  0.000000
  0.017113  0.014883  0.000000
  0.028294  0.016212  0.000000
  0.008641  0.021607  0.000000
  0.019578  0.026753  0.000000
  0.011083  0.031717  0.000000
  0.026590  0.025914  0.000000
  0.024663  0.037869  0.000000
  0.031797  0.038629  0.000000
  0.012252  0.039367  0.000000
  0.024677  0.048228  0.000000
  0.010210  0.046544  0.000000
  0.009946  0.056267  0.000000
  0.012725  0.063804  0.000000
  0.007786  0.073879  0.000000
  0.014522  0.081574  0.000000
  0.016652  0.088480  0.000000
  0.008793  0.090862  0.000000
  0.014596  0.102100  0.000000
  0.010593  0.104849  0.000000
  0.011334  0.115412  0.000000
  0.010420  0.120902  0.000000
  0.011455  0.130732  0.000000
  0.011450  0.137195  0.000000
  0.010470  0.145012  0.000000
  0.013695  0.152863  0.000000
  0.010175  0.157982  0.000000
  0.017189  0.168083  0.000000
  0.008343  0.170246  0.000000
  0.019346  0.174230  0.000000
  0.037634  0.009551  0.000000
  0.024561  0.008917  0.000000
  0.046985  0.009959  0.000000
  0.039022  0.020793  0.000000
  0.045961  0.022498  0.000000
  0.046396  0.033482  0.000000
  0.061274  0.029879  0.000000
  0.037180  0.030632  0.000000
  0.042726  0.051003  0.000000
  0.035693  0.047720  0.000000
  0.036493  0.058333  0.000000
  0.021060  0.053653  0.000000
  0.035193  0.064502  0.000000
  0.025010  0.062526  0.000000
  0.039716  0.072368  0.000000
  0.019731  0.070436  0.000000
  0.024518  0.076077  0.000000
  0.029790  0.086839  0.000000
  0.029155  0.093203  0.000000
  0.024650  0.099366  0.000000
  0.026951  0.108090  0.000000
  0.026643  0.113114  0.000000
  0.024086  0.121122  0.000000
  0.026451  0.125980  0.000000
  0.024764  0.133836  0.000000
  0.027289  0.140153  0.000000
  0.025797  0.146965  0.000000
  0.027081  0.153922  0.000000
  0.026354  0.161131  0.000000
  0.026355  0.174601  0.000000
  0.069438  0.008639  0.000000
  0.055145  0.010825  0.000000
  0.063243  0.014610  0.000000
  0.055189  0.023066  0.000000
  0.066479  0.025392  0.000000
  0.075202  0.026791  0.000000
  0.090377  0.026979  0.000000
  0.066731  0.040446  0.000000
  0.070399  0.047277  0.000000
  0.048032  0.040506  0.000000
  0.062152  0.053390  0.000000
  0.052490  0.049091  0.000000
  0.049976  0.065198  0.000000
  0.048852  0.076449  0.000000
  0.055707  0.079972  0.000000
  0.034280  0.077954  0.000000
  0.049137  0.088050  0.000000
  0.041357  0.087045  0.000000
  0.044476  0.097072  0.000000
  0.039824  0.101307  0.000000
  0.041997  0.108580  0.000000
  0.041720  0.114136  0.000000
  0.041544  0.121723  0.000000
  0.040252  0.127408  0.000000
  0.041098  0.134417  0.000000
  0.040624  0.141263  0.000000
  0.039622  0.149266  0.000000
  0.039098  0.158293  0.000000
  0.037007  0.167587  0.000000
  0.034552  0.171946  0.000000
  0.092886  0.010383  0.000000
  0.084647  0.009683  0.000000
  0.096512  0.021425  0.000000
  0.075531  0.015229  0.000000
  0.098509  0.033765  0.000000
  0.084133  0.020009  0.000000
  0.088405  0.040191  0.000000
  0.081079  0.032879  0.000000
  0.079092  0.053520  0.000000
  0.057582  0.039887  0.000000
  0.086845  0.053211  0.000000
  0.066548  0.059710  0.000000
  0.078550  0.062887  0.000000
  0.053137  0.060092  0.000000
  0.059850  0.068720  0.000000
  0.070138  0.069107  0.000000
  0.064907  0.079208  0.000000
  0.065475  0.089434  0.000000
  0.060675  0.094636  0.000000
  0.057635  0.099080  0.000000
  0.059692  0.108386  0.000000
  0.058101  0.111542  0.000000
  0.055945  0.120069  0.000000
  0.057058  0.124804  0.000000
  0.056145  0.132907  0.000000
  0.053642  0.140215  0.000000
  0.052141  0.147850  0.000000
  0.050013  0.155761  0.000000
  0.048903  0.163621  0.000000
  0.050110  0.173039  0.000000
  0.115935  0.009525  0.000000
  0.103765  0.009398  0.000000
  0.115400  0.018294  0.000000
  0.104657  0.017879  0.000000
  0.125978  0.024070  0.000000
  0.109342  0.027408  0.000000
  0.104118  0.037261  0.000000
  0.116341  0.039964  0.000000
  0.077630  0.040872  0.000000
  0.105242  0.046415  0.000000
  0.092335  0.045974  0.000000
  0.103493  0.052880  0.000000
  0.096710  0.059118  0.000000
  0.084875  0.065914  0.000000
  0.091551  0.072603  0.000000
  0.075748  0.076642  0.000000
  0.085205  0.081490  0.000000
  0.075682  0.084295  0.000000
  0.080376  0.095294  0.000000
  0.075074  0.097614  0.000000
  0.073784  0.105237  0.000000
  0.074171  0.111795  0.000000
  0.073626  0.117810  0.000000
  0.071242  0.126146  0.000000
  0.069512  0.131453  0.000000
  0.066226  0.139797  0.000000
  0.065113  0.147239  0.000000
  0.064814  0.154796  0.000000
  0.062651  0.163165  0.000000
  0.059459  0.169729  0.000000
  0.137159  0.008271  0.000000
  0.125375  0.010062  0.000000
  0.143078  0.022672  0.000000
  0.129803  0.019054  0.000000
  0.162106  0.018535  0.000000
  0.134725  0.030912  0.000000
  0.150239  0.027401  0.000000
  0.116521  0.029780  0.000000
  0.128642  0.035681  0.000000
  0.132115  0.045816  0.000000
  0.127892  0.055788  0.000000
  0.121609  0.043679  0.000000
  0.116020  0.052626  0.000000
  0.107170  0.062975  0.000000
  0.097644  0.068659  0.000000
  0.106527  0.077862  0.000000
  0.094411  0.082230  0.000000
  0.103281  0.086071  0.000000
  0.090369  0.091874  0.000000
  0.094588  0.097180  0.000000
  0.091334  0.104184  0.000000
  0.090923  0.110108  0.000000
  0.087731  0.116240  0.000000
  0.085725  0.122971  0.000000
  0.083939  0.130138  0.000000
  0.081898  0.137669  0.000000
  0.079616  0.144639  0.000000
  0.076618  0.152241  0.000000
  0.073521  0.161300  0.000000
  0.075091  0.169292  0.000000
  0.167191  0.008662  0.000000
  0.150627  0.009392  0.000000
  0.156470  0.013087  0.000000
  0.141566  0.016506  0.000000
  0.185528  0.027998  0.000000
  0.171847  0.019316  0.000000
  0.163191  0.028227  0.000000
  0.154180  0.032010  0.000000
  0.142593  0.037477  0.000000
  0.150639  0.043461  0.000000
  0.140465  0.046117  0.000000
  0.149510  0.053730  0.000000
  0.132750  0.059937  0.000000
  0.117919  0.060161  0.000000
  0.125963  0.068335  0.000000
  0.111599  0.069408  0.000000
  0.120600  0.076943  0.000000
  0.114679  0.083320  0.000000
  0.114862  0.091543  0.000000
  0.108463  0.095399  0.000000
  0.108872  0.103140  0.000000
  0.106513  0.108425  0.000000
  0.104365  0.115132  0.000000
  0.102231  0.122576  0.000000
  0.098760  0.128061  0.000000
  0.096058  0.135920  0.000000
  0.092134  0.143729  0.000000
  0.089629  0.151181  0.000000
  0.087802  0.160126  0.000000
  0.085069  0.166100  0.000000
  0.192168  0.011503  0.000000
  0.180194  0.008695  0.000000
  0.206611  0.020416  0.000000
  0.180906  0.015515  0.000000
  0.216061  0.025484  0.000000
  0.195363  0.018383  0.000000
  0.203913  0.030169  0.000000
  0.175454  0.026896  0.000000
  0.188227  0.037600  0.000000
  0.172254  0.036712  0.000000
  0.169201  0.038348  0.000000
  0.159913  0.042789  0.000000
  0.160491  0.053670  0.000000
  0.143049  0.058297  0.000000
  0.143940  0.066529  0.000000
  0.142800  0.074241  0.000000
  0.128778  0.073840  0.000000
  0.139436  0.081585  0.000000
  0.130168  0.086194  0.000000
  0.131139  0.090983  0.000000
  0.126381  0.098361  0.000000
  0.124630  0.102801  0.000000
  0.121866  0.110549  0.000000
  0.118652  0.116850  0.000000
  0.114948  0.124241  0.000000
  0.110068  0.132467  0.000000
  0.106598  0.140374  0.000000
  0.103662  0.148168  0.000000
  0.100347  0.156846  0.000000
  0.098667  0.164329  0.000000
  0.218270  0.011141  0.000000
  0.201550  0.009326  0.000000
  0.229664  0.010754  0.000000
  0.211978  0.013995  0.000000
  0.242771  0.022177  0.000000
  0.226537  0.017667  0.000000
  0.224932  0.027627  0.000000
  0.210296  0.034155  0.000000
  0.192116  0.026650  0.000000
  0.202123  0.039196  0.000000
  0.188626  0.041396  0.000000
  0.177950  0.052523  0.000000
  0.181721  0.060881  0.000000
  0.165026  0.052827  0.000000
  0.171914  0.063181  0.000000
  0.154763  0.065883  0.000000
  0.162951  0.066845  0.000000
  0.154280  0.074476  0.000000
  0.154527  0.083277  0.000000
  0.146439  0.087282  0.000000
  0.145726  0.094929  0.000000
  0.142679  0.100788  0.000000
  0.138733  0.107131  0.000000
  0.134042  0.114095  0.000000
  0.128699  0.121326  0.000000
  0.124181  0.129744  0.000000
  0.120444  0.137539  0.000000
  0.116842  0.144935  0.000000
  0.112853  0.154829  0.000000
  0.110362  0.160782  0.000000
  0.261375  0.011625  0.000000
  0.237959  0.012613  0.000000
  0.271035  0.017358  0.000000
  0.248325  0.010179  0.000000
  0.270570  0.027386  0.000000
  0.249779  0.016383  0.000000
  0.258902  0.023920  0.000000
  0.233839  0.027419  0.000000
  0.226554  0.036733  0.000000
  0.218427  0.041826  0.000000
  0.209930  0.046354  0.000000
  0.208423  0.053774  0.000000
  0.178475  0.048993  0.000000
  0.195989  0.050413  0.000000
  0.193949  0.052572  0.000000
  0.190377  0.065635  0.000000
  0.183960  0.071534  0.000000
  0.171270  0.072533  0.000000
  0.172632  0.080124  0.000000
  0.165504  0.082271  0.000000
  0.164523  0.090448  0.000000
  0.160818  0.096480  0.000000
  0.156945  0.102515  0.000000
  0.150156  0.110362  0.000000
  0.144224  0.117431  0.000000
  0.139439  0.126151  0.000000
  0.135326  0.133228  0.000000
  0.130259  0.141666  0.000000
  0.127237  0.150495  0.000000
  0.123871  0.158055  0.000000
  0.300691  0.013522  0.000000
  0.267707  0.011004  0.000000
  0.308441  0.009765  0.000000
  0.288688  0.010567  0.000000
  0.304857  0.018876  0.000000
  0.285053  0.012467  0.000000
  0.280596  0.021125  0.000000
  0.275165  0.030915  0.000000
  0.257932  0.028800  0.000000
  0.258100  0.040170  0.000000
  0.245938  0.030790  0.000000
  0.235260  0.038639  0.000000
  0.225982  0.047943  0.000000
  0.229454  0.053272  0.000000
  0.215983  0.056318  0.000000
  0.211319  0.064803  0.000000
  0.197714  0.063506  0.000000
  0.203052  0.071699  0.000000
  0.194447  0.078114  0.000000
  0.186762  0.080081  0.000000
  0.183061  0.087213  0.000000
  0.180600  0.092764  0.000000
  0.174308  0.099331  0.000000
  0.166913  0.105866  0.000000
  0.159916  0.113873  0.000000
  0.155377  0.121111  0.000000
  0.149264  0.129474  0.000000
  0.145226  0.137179  0.000000
  0.139801  0.147532  0.000000
  0.136033  0.153895  0.000000
  0.348398  0.011165  0.000000
  0.324248  0.010790  0.000000
  0.352851  0.014112  0.000000
  0.336075  0.010040  0.000000
  0.339818  0.017610  0.000000
  0.319140  0.014626  0.000000
  0.315048  0.022001  0.000000
  0.306624  0.030314  0.000000
  0.292365  0.022171  0.000000
  0.291404  0.028675  0.000000
  0.279590  0.039243  0.000000
  0.262852  0.041028  0.000000
  0.245764  0.037398  0.000000
  0.257796  0.052195  0.000000
  0.241303  0.048182  0.000000
  0.236824  0.057508  0.000000
  0.232717  0.067749  0.000000
  0.224207  0.063650  0.000000
  0.223183  0.075789  0.000000
  0.213744  0.071146  0.000000
  0.207022  0.080801  0.000000
  0.204006  0.086136  0.000000
  0.194852  0.093612  0.000000
  0.185408  0.101078  0.000000
  0.177933  0.109151  0.000000
  0.171862  0.116750  0.000000
  0.165313  0.124619  0.000000
  0.159335  0.132925  0.000000
  0.154012  0.142384  0.000000
  0.150228  0.149302  0.000000
  0.425722  0.013058  0.000000
  0.384803  0.009581  0.000000
  0.392002  0.013894  0.000000
  0.370303  0.012933  0.000000
  0.382215  0.016799  0.000000
  0.364125  0.010416  0.000000
  0.350163  0.024637  0.000000
  0.344962  0.031224  0.000000
  0.330602  0.019777  0.000000
  0.322645  0.029215  0.000000
  0.311217  0.033928  0.000000
  0.298282  0.036256  0.000000
  0.288865  0.036423  0.000000
  0.291390  0.049171  0.000000
  0.272438  0.044593  0.000000
  0.268229  0.053266  0.000000
  0.261040  0.059742  0.000000
  0.248376  0.048223  0.000000
  0.247876  0.060625  0.000000
  0.246904  0.065432  0.000000
  0.236244  0.072876  0.000000
  0.226123  0.081709  0.000000
  0.214896  0.087351  0.000000
  0.202211  0.095950  0.000000
  0.196955  0.102609  0.000000
  0.189599  0.111514  0.000000
  0.181115  0.117619  0.000000
  0.173907  0.127986  0.000000
  0.167978  0.137227  0.000000
  0.162569  0.145151  0.000000
  0.462152  0.012762  0.000000
  0.430813  0.011473  0.000000
  0.442638  0.011535  0.000000
  0.413836  0.010274  0.000000
  0.427610  0.023946  0.000000
  0.402540  0.010604  0.000000
  0.384074  0.027329  0.000000
  0.386068  0.035364  0.000000
  0.359399  0.023920  0.000000
  0.362904  0.029641  0.000000
  0.356190  0.042458  0.000000
  0.333772  0.027801  0.000000
  0.324556  0.036342  0.000000
  0.329848  0.043029  0.000000
  0.311397  0.044293  0.000000
  0.299005  0.046706  0.000000
  0.299238  0.060340  0.000000
  0.281641  0.048875  0.000000
  0.282204  0.058414  0.000000
  0.274003  0.062193  0.000000
  0.261275  0.068410  0.000000
  0.249952  0.075057  0.000000
  0.239159  0.081644  0.000000
  0.224963  0.089241  0.000000
  0.218714  0.096772  0.000000
  0.209077  0.104641  0.000000
  0.198524  0.113308  0.000000
  0.191916  0.121619  0.000000
  0.183316  0.132113  0.000000
  0.177765  0.138699  0.000000
  0.506979  0.010158  0.000000
  0.480396  0.011816  0.000000
  0.492450  0.010071  0.000000
  0.475895  0.012006  0.000000
  0.450227  0.025929  0.000000
  0.454629  0.011600  0.000000
  0.409555  0.015888  0.000000
  0.424580  0.037579  0.000000
  0.393267  0.023085  0.000000
  0.403329  0.022246  0.000000
  0.399728  0.031437  0.000000
  0.370347  0.019071  0.000000
  0.375743  0.031028  0.000000
  0.371594  0.037991  0.000000
  0.340833  0.035587  0.000000
  0.342195  0.043874  0.000000
  0.335449  0.049994  0.000000
  0.318988  0.044774  0.000000
  0.315502  0.055925  0.000000
  0.305387  0.052080  0.000000
  0.289558  0.060253  0.000000
  0.274706  0.070059  0.000000
  0.261782  0.075251  0.000000
  0.253503  0.081181  0.000000
  0.240756  0.088769  0.000000
  0.229986  0.098437  0.000000
  0.216644  0.104193  0.000000
  0.207367  0.115504  0.000000
  0.199374  0.127276  0.000000
  0.191621  0.132153  0.000000
  0.538287  0.011999  0.000000
  0.527732  0.009346  0.000000
  0.500728  0.016115  0.000000
  0.500870  0.028628  0.000000
  0.491407  0.018701  0.000000
  0.465732  0.014957  0.000000
  0.485831  0.025242  0.000000
  0.469899  0.026500  0.000000
  0.443380  0.015048  0.000000
  0.448659  0.023920  0.000000
  0.435684  0.030837  0.000000
  0.422530  0.021729  0.000000
  0.414272  0.031986  0.000000
  0.412469  0.030000  0.000000
  0.396064  0.042386  0.000000
  0.380705  0.042380  0.000000
  0.372610  0.049412  0.000000
  0.360123  0.037931  0.000000
  0.353861  0.049903  0.000000
  0.336926  0.056287  0.000000
  0.322115  0.057663  0.000000
  0.307249  0.065252  0.000000
  0.294990  0.069570  0.000000
  0.281374  0.075428  0.000000
  0.268784  0.082016  0.000000
  0.251903  0.089240  0.000000
  0.238811  0.097331  0.000000
  0.226958  0.108627  0.000000
  0.215792  0.117425  0.000000
  0.205430  0.126415  0.000000
  0.561616  0.017774  0.000000
  0.571209  0.015684  0.000000
  0.566985  0.010190  0.000000
  0.534954  0.021432  0.000000
  0.536821  0.029938  0.000000
  0.516968  0.013426  0.000000
  0.526395  0.017874  0.000000
  0.511163  0.018802  0.000000
  0.492193  0.041526  0.000000
  0.492972  0.031108  0.000000
  0.477663  0.025134  0.000000
  0.463679  0.029954  0.000000
  0.464788  0.039544  0.000000
  0.450470  0.036072  0.000000
  0.441371  0.037256  0.000000
  0.431078  0.042091  0.000000
  0.408689  0.046072  0.000000
  0.403431  0.039873  0.000000
  0.390035  0.048493  0.000000
  0.370638  0.051976  0.000000
  0.352553  0.053550  0.000000
  0.345338  0.062091  0.000000
  0.329305  0.063132  0.000000
  0.316530  0.070209  0.000000
  0.296706  0.075764  0.000000
  0.281669  0.077609  0.000000
  0.268729  0.090313  0.000000
  0.250118  0.095954  0.000000
  0.235421  0.110895  0.000000
  0.224299  0.116349  0.000000
  0.599906  0.011759  0.000000
  0.610386  0.011094  0.000000
  0.592853  0.010842  0.000000
  0.579682  0.011251  0.000000
  0.583045  0.016394  0.000000
  0.551411  0.010746  0.000000
  0.547611  0.016210  0.000000
  0.554655  0.019535  0.000000
  0.516967  0.034775  0.000000
  0.515338  0.051901  0.000000
  0.529360  0.038836  0.000000
  0.518696  0.024856  0.000000
  0.515226  0.037806  0.000000
  0.500558  0.050616  0.000000
  0.475887  0.037403  0.000000
  0.468609  0.040645  0.000000
  0.451859  0.043826  0.000000
  0.440453  0.048161  0.000000
  0.422620  0.045377  0.000000
  0.411661  0.054695  0.000000
  0.395012  0.056014  0.000000
  0.385419  0.056823  0.000000
  0.365567  0.059121  0.000000
  0.352500  0.066556  0.000000
  0.333273  0.068694  0.000000
  0.317138  0.070291  0.000000
  0.300652  0.090701  0.000000
  0.272734  0.097601  0.000000
  0.250935  0.105560  0.000000
  0.241056  0.108160  0.000000
  0.634203  0.014031  0.000000
  0.617887  0.012098  0.000000
  0.625522  0.013525  0.000000
  0.618321  0.024526  0.000000
  0.620220  0.042527  0.000000
  0.598141  0.019239  0.000000
  0.579743  0.039676  0.000000
  0.586026  0.024992  0.000000
  0.573180  0.029739  0.000000
  0.573259  0.032898  0.000000
  0.560828  0.031555  0.000000
  0.552336  0.034362  0.000000
  0.537482  0.029999  0.000000
  0.528999  0.045640  0.000000
  0.506045  0.033501  0.000000
  0.509959  0.048201  0.000000
  0.487172  0.039975  0.000000
  0.482280  0.050371  0.000000
  0.462178  0.053855  0.000000
  0.451182  0.056380  0.000000
  0.435365  0.056043  0.000000
  0.417196  0.050039  0.000000
  0.405994  0.066592  0.000000
  0.385113  0.064208  0.000000
  0.368867  0.065746  0.000000
  0.354513  0.076157  0.000000
  0.335738  0.078805  0.000000
  0.304829  0.076174  0.000000
  0.276031  0.089193  0.000000
  0.262450  0.098958  0.000000
  0.670142  0.010546  0.000000
  0.646916  0.011292  0.000000
  0.655267  0.011112  0.000000
  0.642660  0.016886  0.000000
  0.632454  0.020331  0.000000
  0.602290  0.035193  0.000000
  0.612843  0.024279  0.000000
  0.590793  0.033568  0.000000
  0.607631  0.033991  0.000000
  0.579297  0.047806  0.000000
  0.588182  0.039780  0.000000
  0.562133  0.036940  0.000000
  0.557105  0.050590  0.000000
  0.546482  0.045132  0.000000
  0.548859  0.041598  0.000000
  0.532559  0.049819  0.000000
  0.515652  0.062256  0.000000
  0.500574  0.049348  0.000000
  0.479982  0.056525  0.000000
  0.476138  0.054980  0.000000
  0.460021  0.056406  0.000000
  0.447874  0.055933  0.000000
  0.429366  0.059383  0.000000
  0.411003  0.063970  0.000000
  0.396641  0.062379  0.000000
  0.373010  0.071341  0.000000
  0.347963  0.071293  0.000000
  0.333159  0.077375  0.000000
  0.306668  0.084276  0.000000
  0.288518  0.089915  0.000000
 -0.010000  0.500000  0.000000
 -0.010000  0.490000  0.000000
 -0.010000  0.480000  0.000000
 -0.010000  0.470000  0.000000
 -0.010000  0.460000  0.000000
 -0.010000  0.450000  0.000000
 -0.010000  0.440000  0.000000
 -0.010000  0.430000  0.000000
 -0.010000  0.420000  0.000000
 -0.010000  0.410000  0.000000
 -0.010000  0.400000  0.000000
 -0.010000  0.390000  0.000000
 -0.010000  0.380000  0.000000
 -0.010000  0.370000  0.000000
 -0.010000  0.360000  0.000000
 -0.010000  0.350000  0.000000
 -0.010000  0.340000  0.000000
 -0.010000  0.330000  0.000000
 -0.010000  0.320000  0.000000
 -0.010000  0.310000  0.000000
 -0.010000  0.300000  0.000000
 -0.010000  0.290000  0.000000
 -0.010000  0.280000  0.000000
 -0.010000  0.270000  0.000000
 -0.010000  0.260000  0.000000
 -0.010000  0.250000  0.000000
 -0.010000  0.240000  0.000000
 -0.010000  0.230000  0.000000
 -0.010000  0.220000  0.000000
 -0.010000  0.210000  0.000000
 -0.010000  0.200000  0.000000
 -0.010000  0.190000  0.000000
 -0.010000  0.180000  0.000000
 -0.010000  0.170000  0.000000
 -0.010000  0.160000  0.000000
 -0.010000  0.150000  0.000000
 -0.010000  0.140000  0.000000
 -0.010000  0.130000  0.000000
 -0.010000  0.120000  0.000000
 -0.010000  0.110000  0.000000
 -0.010000  0.100000  0.000000
 -0.010000  0.090000  0.000000
 -0.010000  0.080000  0.000000
 -0.010000  0.070000  0.000000
 -0.010000  0.060000  0.000000
 -0.010000  0.050000  0.000000
 -0.010000  0.040000  0.000000
 -0.010000  0.030000  0.000000
 -0.010000  0.020000  0.000000
 -0.010000  0.010000  0.000000
 -0.100000 -0.010000  0.000000
 -0.090000 -0.010000  0.000000
 -0.080000 -0.010000  0.000000
 -0.070000 -0.010000  0.000000
 -0.060000 -0.010000  0.000000
 -0.050000 -0.010000  0.000000
 -0.040000 -0.010000  0.000000
 -0.030000 -0.010000  0.000000