<?xml version="1.0" encoding="UTF-8"?>
<VTKFile type="UnstructuredGrid" version="1.0" byte_order="LittleEndian">
<UnstructuredGrid>
  <Piece NumberOfPoints="1555" NumberOfCells="1555">
      <PointData>
        <DataArray type="Int32" Name="Type" format="ascii">
 1 1 1 1 1 1 1 1 1 1
 1 1 1 1 1 1 1 1 1 1
 1 1 1 1 1 1 1 1 1 1
 1 1 1 1 1 1 1 1 1 1
 1 1 1 1 1 1 1 1 1 1
 1 1 1 1 1 1 1 1 1 1
 1 3 3 3 3 3 3 3 3 3
 3 3 3 3 3 3 3 3 3 3
 3 3 3 3 3 3 3 3 3 3
 3 3 3 3 3 3 3 3 3 3
 3 3 3 3 3 3 3 3 3 3
 3 3 3 3 3 3 3 3 3 3
 3 3 3 3 3 3 3 3 3 3
 1 1 1 1 1 1 1 1 1 1
 1 1 1 1 1 1 1 1 1 1
 1 1 1 1 1 1 1 1 1 1
 1 1 1 1 1 1 1 1 1 1
 1 1 1 1 1 1 1 1 1 1
 1 1 1 1 1 1 1 1 1 1
 1 2 2 2 2 2 2 2 2 2
 2 2 2 2 2 2 2 2 2 2
 2 2 2 2 2 2 2 2 2 2
 2 2 2 2 2 2 2 2 2 2
 2 2 2 2 2 2 2 2 2 2
 2 2 2 2 2 2 2 2 2 2
 2 2 2 2 2 2 2 2 2 2
 2 2 2 2 2 2 2 2 2 2
 2 2 2 2 2 2 2 2 2 2
 2 2 2 2 2 2 2 2 2 2
 2 2 2 2 2 2 2 2 2 2
 2 2 2 2 2 2 2 2 2 2
 2 2 2 2 2 2 2 2 2 2
 2 2 2 2 2 2 2 2 2 2
 2 2 2 2 2 2 2 2 2 2
 2 2 2 2 2 2 2 2 2 2
 2 2 2 2 2 2 2 2 2 2
 2 2 2 2 2 2 2 2 2 2
 2 2 2 2 2 2 2 2 2 2
 2 2 2 2 2 2 2 2 2 2
 2 2 2 2 2 2 2 2 2 2
 2 2 2 2 2 2 2 2 2 2
 2 2 2 2 2 2 2 2 2 2
 2 2 2 2 2 2 2 2 2 2
 2 2 2 2 2 2 2 2 2 2
 2 2 2 2 2 2 2 2 2 2
 2 2 2 2 2 2 2 2 2 2
 2 2 2 2 2 2 2 2 2 2
 2 2 2 2 2 2 2 2 2 2
 2 2 2 2 2 2 2 2 2 2
 2 2 2 2 2 2 2 2 2 2
 2 2 2 2 2 2 2 2 2 2
 2 2 2 2 2 2 2 2 2 2
 2 2 2 2 2 2 2 2 2 2
 2 2 2 2 2 2 2 2 2 2
 2 2 2 2 2 2 2 2 2 2
 2 2 2 2 2 2 2 2 2 2
 2 2 2 2 2 2 2 2 2 2
 2 2 2 2 2 2 2 2 2 2
 2 2 2 2 2 2 2 2 2 2
 2 2 2 2 2 2 2 2 2 2
 2 2 2 2 2 2 2 2 2 2
 2 2 2 2 2 2 2 2 2 2
 2 2 2 2 2 2 2 2 2 2
 2 2 2 2 2 2 2 2 2 2
 2 2 2 2 2 2 2 2 2 2
 2 2 2 2 2 2 2 2 2 2
 2 2 2 2 2 2 2 2 2 2
 2 2 2 2 2 2 2 2 2 2
 2 2 2 2 2 2 2 2 2 2
 2 2 2 2 2 2 2 2 2 2
 2 2 2 2 2 2 2 2 2 2
 2 2 2 2 2 2 2 2 2 2
 2 2 2 2 2 2 2 2 2 2
 2 2 2 2 2 2 2 2 2 2
 2 2 2 2 2 2 2 2 2 2
 2 2 2 2 2 2 2 2 2 2
 2 2 2 2 2 2 2 2 2 2
 2 2 2 2 2 2 2 2 2 2
 2 2 2 2 2 2 2 2 2 2
 2 0 0 0 0 0 0 0 0 0
 0 0 0 0 0 0 0 0 0 0
 0 0 0 0 0 0 0 0 0 0
 0 0 0 0 0 0 0 0 0 0
 0 0 0 0 0 0 0 0 0 0
 0 0 0 0 0 0 0 0 0 0
 0 0 0 0 0 0 0 0 0 0
 0 0 0 0 0 0 0 0 0 0
 0 0 0 0 0 0 0 0 0 0
 0 0 0 0 0 0 0 0 0 0
 0 0 0 0 0 0 0 0 0 0
 0 0 0 0 0 0 0 0 0 0
 0 0 0 0 0 0 0 0 0 0
 0 0 0 0 0 0 0 0 0 0
 0 0 0 0 0 0 0 0 0 0
 0 0 0 0 0 0 0 0 0 0
 0 0 0 0 0 0 0 0 0 0
 0 0 0 0 0 0 0 0 0 0
 0 0 0 0 0 0 0 0 0 0
 0 0 0 0 0 0 0 0 0 0
 0 0 0 0 0 0 0 0 0 0
 0 0 0 0 0 0 0 0 0 0
 0 0 0 0 0 0 0 0 0 0
 0 0 0 0 0 0 0 0 0 0
 0 0 0 0 0 0 0 0 0 0
 0 0 0 0 0 0 0 0 0 0
 0 0 0 0 0 0 0 0 0 0
 0 0 0 0 0 0 0 0 0 0
 0 0 0 0 0 0 0 0 0 0
 0 0 0 0 0 0 0 0 0 0
 0 0 0 0 0 0 0 0 0 0
 0 0 0 0 0 0 0 0 0 0
 0 0 0 0 0 0 0 0 0 0
 0 0 0 0 0 0 0 0 0 0
 0 0 0 0 0 0 0 0 0 0
 0 0 0 0 0 0 0 0 0 0
 0 0 0 0 0 0 0 0 0 0
 0 0 0 0 0 0 0 0 0 0
 0 0 0 0 0 0 0 0 0 0
 0 0 0 0 0 0 0 0 0 0
 0 0 0 0 0 0 0 0 0 0
 0 0 0 0 0 0 0 0 0 0
 0 0 0 0 0 0 0 0 0 0
 0 0 0 0 0 0 0 0 0 0
 0 0 0 0 0 0 0 0 0 0
 0 0 0 0 0 0 0 0 0 0
 0 0 0 0 0 0 0 0 0 0
 0 0 0 0 0 0 0 0 0 0
 0 0 0 0 0 0 0 0 0 0
 0 0 0 0 0 0 0 0 0 0
 0 0 0 0 0 0 0 0 0 0
 0 0 0 0 0 0 0 0 0 0
 0 0 0 0 0 0 0 0 0 0
 0 0 0 0 0 0 0 0 0 0
 0 0 0 0 0 0 0 0 0 0
 0 0 0 0 0 0 0 0 0 0
 0 0 0 0 0 0 0 0 0 0
 0 0 0 0 0 0 0 0 0 0
 0 0 0 0 0 0 0 0 0 0
 0 0 0 0 0 0 0 0 0 0
 0 0 0 0 0 0 0 0 0 0
 0 0 0 0 0 0 0 0 0 0
 0 0 0 0 0 0 0 0 0 0
 0 0 0 0 0 0 0 0 0 0
 0 0 0 0 0 0 0 0 0 0
 0 0 0 0 0 0 0 0 0 0
 0 0 0 0 0 0 0 0 0 0
 0 0 0 0 0 0 0 0 0 0
 0 0 0 0 0 0 0 0 0 0
 0 0 0 0 0 0 0 0 0 0
 0 0 0 0 0 0 0 0 0 0
 0 0 0 0 0 0 0 0 0 0
 0 0 0 0 0 0 0 0 0 0
 0 0 0 0 0 0 0 0 0 0
 0 0 0 0 0 0 0 0 0 0
 0 0 0 0 0 0 0 0 0 0
 0 0 0 0 0
        </DataArray>
      </PointData>
      <Points>
        <DataArray type="Float32" NumberOfComponents="3" format="ascii">
  0.000000  0.500000  0.000000
  0.000000  0.490000  0.000000
  0.000000  0.480000  0.000000
  0.000000  0.470000  0.000000
  0.000000  0.460000  0.000000
  0.000000  0.450000  0.000000
  0.000000  0.440000  0.000000
  0.000000  0.430000  0.000000
  0.000000  0.420000  0.000000
  0.000000  0.410000  0.000000
  0.000000  0.400000  0.000000
  0.000000  0.390000  0.000000
  0.000000  0.380000  0.000000
  0.000000  0.370000  0.000000
  0.000000  0.360000  0.000000
  0.000000  0.350000  0.000000
  0.000000  0.340000  0.000000
  0.000000  0.330000  0.000000
  0.000000  0.320000  0.000000
  0.000000  0.310000  0.000000
  0.000000  0.300000  0.000000
  0.000000  0.290000  0.000000
  0.000000  0.280000  0.000000
  0.000000  0.270000  0.000000
  0.000000  0.260000  0.000000
  0.000000  0.250000  0.000000
  0.000000  0.240000  0.000000
  0.000000  0.230000  0.000000
  0.000000  0.220000  0.000000
  0.000000  0.210000  0.000000
  0.000000  0.200000  0.000000
  0.000000  0.190000  0.000000
  0.000000  0.180000  0.000000
  0.000000  0.170000  0.000000
  0.000000  0.160000  0.000000
  0.000000  0.150000  0.000000
  0.000000  0.140000  0.000000
  0.000000  0.130000  0.000000
  0.000000  0.120000  0.000000
  0.000000  0.110000  0.000000
  0.000000  0.100000  0.000000
  0.000000  0.090000  0.000000
  0.000000  0.080000  0.000000
  0.000000  0.070000  0.000000
  0.000000  0.060000  0.000000
  0.000000  0.050000  0.000000
  0.000000  0.040000  0.000000
  0.000000  0.030000  0.000000
  0.000000  0.020000  0.000000
  0.000000  0.010000  0.000000
 -0.100000  0.000000  0.000000
 -0.090000  0.000000  0.000000
 -0.080000  0.000000  0.000000
 -0.070000  0.000000  0.000000
 -0.060000  0.000000  0.000000
 -0.050000  0.000000  0.000000
 -0.040000  0.000000  0.000000
 -0.030000  0.000000  0.000000
 -0.020000  0.000000  0.000000
 -0.010000  0.000000  0.000000
 -0.000000  0.000000  0.000000
  0.010000  0.000000  0.000000
  0.020000  0.000000  0.000000
  0.030000  0.000000  0.000000
  0.040000  0.000000  0.000000
  0.050000  0.000000  0.000000
  0.060000  0.000000  0.000000
  0.070000  0.000000  0.000000
  0.080000  0.000000  0.000000
  0.090000  0.000000  0.000000
  0.100000  0.000000  0.000000
  0.110000  0.000000  0.000000
  0.120000  0.000000  0.000000
  0.130000  0.000000  0.000000
  0.140000  0.000000  0.000000
  0.150000  0.000000  0.000000
  0.160000  0.000000  0.000000
  0.170000  0.000000  0.000000
  0.180000  0.000000  0.000000
  0.190000  0.000000  0.000000
  0.200000  0.000000  0.000000
  0.210000  0.000000  0.000000
  0.220000  0.000000  0.000000
  0.230000  0.000000  0.000000
  0.240000  0.000000  0.000000
  0.250000  0.000000  0.000000
  0.260000  0.000000  0.000000
  0.270000  0.000000  0.000000
  0.280000  0.000000  0.000000
  0.290000  0.000000  0.000000
  0.300000  0.000000  0.000000
  0.310000  0.000000  0.000000
  0.320000  0.000000  0.000000
  0.330000  0.000000  0.000000
  0.340000  0.000000  0.000000
  0.350000  0.000000  0.000000
  0.360000  0.000000  0.000000
  0.370000  0.000000  0.000000
  0.380000  0.000000  0.000000
  0.390000  0.000000  0.000000
  0.400000  0.000000  0.000000
  0.410000  0.000000  0.000000
  0.420000  0.000000  0.000000
  0.430000  0.000000  0.000000
  0.440000  0.000000  0.000000
  0.450000  0.000000  0.000000
  0.460000  0.000000  0.000000
  0.470000  0.000000  0.000000
  0.480000  0.000000  0.000000
  0.490000  0.000000  0.000000
  0.500000  0.000000  0.000000
  0.510000  0.000000  0.000000
  0.520000  0.000000  0.000000
  0.530000  0.000000  0.000000
  0.540000  0.000000  0.000000
  0.550000  0.000000  0.000000
  0.560000  0.000000  0.000000
  0.570000  0.000000  0.000000
  0.580000  0.000000  0.000000
  0.590000  0.000000  0.000000
  0.600000  0.000000  0.000000
  0.610000  0.000000  0.000000
  0.620000  0.000000  0.000000
  0.630000  0.000000  0.000000
  0.640000  0.000000  0.000000
  0.650000  0.000000  0.000000
  0.660000  0.000000  0.000000
  0.670000  0.000000  0.000000
  0.680000  0.000000  0.000000
  0.690000  0.000000  0.000000
  0.700000  0.000000  0.000000
  0.710000  0.000000  0.000000
  0.720000  0.000000  0.000000
  0.730000  0.000000  0.000000
  0.740000  0.000000  0.000000
  0.750000  0.000000  0.000000
  0.760000  0.000000  0.000000
  0.770000  0.000000  0.000000
  0.780000  0.000000  0.000000
  0.790000  0.000000  0.000000
  0.800000  0.000000  0.000000
  0.700000  0.010000  0.000000
  0.700000  0.020000  0.000000
  0.700000  0.030000  0.000000
  0.700000  0.040000  0.000000
  0.700000  0.050000  0.000000
  0.700000  0.060000  0.000000
  0.700000  0.070000  0.000000
  0.700000  0.080000  0.000000
  0.700000  0.090000  0.000000
  0.700000  0.100000  0.000000
  0.700000  0.110000  0.000000
  0.700000  0.120000  0.000000
  0.700000  0.130000  0.000000
  0.700000  0.140000  0.000000
  0.700000  0.150000  0.000000
  0.700000  0.160000  0.000000
  0.700000  0.170000  0.000000
  0.700000  0.180000  0.000000
  0.700000  0.190000  0.000000
  0.700000  0.200000  0.000000
  0.700000  0.210000  0.000000
  0.700000  0.220000  0.000000
  0.700000  0.230000  0.000000
  0.700000  0.240000  0.000000
  0.700000  0.250000  0.000000
  0.700000  0.260000  0.000000
  0.700000  0.270000  0.000000
  0.700000  0.280000  0.000000
  0.700000  0.290000  0.000000
  0.700000  0.300000  0.000000
  0.700000  0.310000  0.000000
  0.700000  0.320000  0.000000
  0.700000  0.330000  0.000000
  0.700000  0.340000  0.000000
  0.700000  0.350000  0.000000
  0.700000  0.360000  0.000000
  0.700000  0.370000  0.000000
  0.700000  0.380000  0.000000
  0.700000  0.390000  0.000000
  0.700000  0.400000  0.000000
  0.700000  0.410000  0.000000
  0.700000  0.420000  0.000000
  0.700000  0.430000  0.000000
  0.700000  0.440000  0.000000
  0.700000  0.450000  0.000000
  0.700000  0.460000  0.000000
  0.700000  0.470000  0.000000
  0.700000  0.480000  0.000000
  0.700000  0.490000  0.000000
  0.700000  0.500000  0.000000
  0.013173  0.009227  0.000000
  0.023729  0.016231  0.000000
  0.032526  0.016371  0.000000
  0.009269  0.014711  0.000000
  0.018350  0.026545  0.000000
  0.012286  0.024981  0.000000
  0.029372  0.026601  0.000000
  0.034716  0.032871  0.000000
  0.044741  0.032980  0.000000
  0.023903  0.035647  0.000000
  0.034913  0.042360  0.000000
  0.008529  0.034927  0.000000
  0.011962  0.044063  0.000000
  0.007519  0.055138  0.000000
  0.010084  0.069209  0.000000
  0.019177  0.068355  0.000000
  0.026889  0.076025  0.000000
  0.011065  0.076953  0.000000
  0.020370  0.091128  0.000000
  0.008751  0.086251  0.000000
  0.014927  0.097061  0.000000
  0.008599  0.101914  0.000000
  0.010291  0.113629  0.000000
  0.012861  0.119401  0.000000
  0.009586  0.128920  0.000000
  0.016780  0.135222  0.000000
  0.010898  0.138136  0.000000
  0.020527  0.147046  0.000000
  0.009078  0.151232  0.000000
  0.024209  0.147553  0.000000
  0.042827  0.008570  0.000000
  0.027239  0.008380  0.000000
  0.051776  0.010752  0.000000
  0.041744  0.019736  0.000000
  0.059059  0.014286  0.000000
  0.058081  0.028874  0.000000
  0.074217  0.022668  0.000000
  0.046886  0.021893  0.000000
  0.051694  0.048053  0.000000
  0.046306  0.041249  0.000000
  0.037218  0.053080  0.000000
  0.018940  0.042502  0.000000
  0.044455  0.057518  0.000000
  0.030032  0.049003  0.000000
  0.048900  0.064437  0.000000
  0.017471  0.058776  0.000000
  0.020608  0.053988  0.000000
  0.030746  0.067835  0.000000
  0.040874  0.077951  0.000000
  0.021695  0.083119  0.000000
  0.036658  0.094314  0.000000
  0.030885  0.095755  0.000000
  0.021323  0.104590  0.000000
  0.031364  0.106983  0.000000
  0.021900  0.112858  0.000000
  0.030635  0.120010  0.000000
  0.024772  0.123718  0.000000
  0.030256  0.130852  0.000000
  0.029042  0.136342  0.000000
  0.032968  0.149124  0.000000
  0.085182  0.008472  0.000000
  0.067864  0.008183  0.000000
  0.074147  0.014121  0.000000
  0.062663  0.021017  0.000000
  0.083417  0.023457  0.000000
  0.096994  0.023409  0.000000
  0.113761  0.025813  0.000000
  0.086412  0.035676  0.000000
  0.080643  0.045190  0.000000
  0.055482  0.033262  0.000000
  0.067910  0.044624  0.000000
  0.072864  0.036214  0.000000
  0.057523  0.057385  0.000000
  0.057704  0.073472  0.000000
  0.071599  0.069673  0.000000
  0.032308  0.062153  0.000000
  0.057584  0.077137  0.000000
  0.043874  0.070358  0.000000
  0.045373  0.083276  0.000000
  0.032321  0.084265  0.000000
  0.050356  0.090778  0.000000
  0.048639  0.095550  0.000000
  0.045926  0.105078  0.000000
  0.038499  0.108433  0.000000
  0.047799  0.115509  0.000000
  0.043217  0.121228  0.000000
  0.043510  0.127267  0.000000
  0.044889  0.134265  0.000000
  0.043542  0.141762  0.000000
  0.040677  0.146455  0.000000
  0.113372  0.009876  0.000000
  0.097735  0.010006  0.000000
  0.113710  0.019489  0.000000
  0.086603  0.015756  0.000000
  0.115169  0.038772  0.000000
  0.105222  0.011997  0.000000
  0.106155  0.034310  0.000000
  0.098541  0.024876  0.000000
  0.093695  0.047799  0.000000
  0.071016  0.031879  0.000000
  0.103151  0.048826  0.000000
  0.068070  0.052519  0.000000
  0.094159  0.055571  0.000000
  0.058413  0.045288  0.000000
  0.062745  0.063591  0.000000
  0.082078  0.050970  0.000000
  0.072865  0.061102  0.000000
  0.079452  0.074742  0.000000
  0.069395  0.081058  0.000000
  0.063336  0.086745  0.000000
  0.073749  0.093477  0.000000
  0.062040  0.095312  0.000000
  0.056890  0.107215  0.000000
  0.064963  0.102278  0.000000
  0.061043  0.113423  0.000000
  0.059851  0.120639  0.000000
  0.061738  0.126434  0.000000
  0.059530  0.133669  0.000000
  0.055994  0.142744  0.000000
  0.058301  0.146148  0.000000
  0.137622  0.008684  0.000000
  0.124463  0.009947  0.000000
  0.138863  0.017115  0.000000
  0.128686  0.015298  0.000000
  0.150047  0.017855  0.000000
  0.126505  0.025556  0.000000
  0.122695  0.030741  0.000000
  0.135785  0.031078  0.000000
  0.089892  0.035249  0.000000
  0.130196  0.043857  0.000000
  0.101785  0.038605  0.000000
  0.122015  0.042961  0.000000
  0.113740  0.049934  0.000000
  0.103773  0.059659  0.000000
  0.111648  0.067390  0.000000
  0.082990  0.061093  0.000000
  0.097006  0.067495  0.000000
  0.087386  0.066819  0.000000
  0.094123  0.085935  0.000000
  0.086346  0.079844  0.000000
  0.077954  0.086048  0.000000
  0.087200  0.093247  0.000000
  0.082345  0.101475  0.000000
  0.074735  0.105478  0.000000
  0.080307  0.110883  0.000000
  0.076949  0.119616  0.000000
  0.074386  0.122627  0.000000
  0.073357  0.132930  0.000000
  0.071725  0.138812  0.000000
  0.066897  0.144604  0.000000
  0.160041  0.010507  0.000000
  0.151457  0.009315  0.000000
  0.171180  0.022365  0.000000
  0.157849  0.022657  0.000000
  0.192479  0.016625  0.000000
  0.164281  0.028440  0.000000
  0.183996  0.015981  0.000000
  0.140810  0.026491  0.000000
  0.151749  0.029738  0.000000
  0.165237  0.038748  0.000000
  0.150825  0.044659  0.000000
  0.153584  0.037779  0.000000
  0.140862  0.038532  0.000000
  0.126118  0.057338  0.000000
  0.114574  0.056536  0.000000
  0.120566  0.067338  0.000000
  0.106383  0.073622  0.000000
  0.125345  0.072391  0.000000
  0.096829  0.076193  0.000000
  0.112305  0.081825  0.000000
  0.103508  0.087427  0.000000
  0.105896  0.094331  0.000000
  0.094051  0.098230  0.000000
  0.098512  0.105009  0.000000
  0.096635  0.111481  0.000000
  0.090890  0.115961  0.000000
  0.089583  0.123231  0.000000
  0.089208  0.129717  0.000000
  0.084302  0.138417  0.000000
  0.086389  0.141851  0.000000
  0.207416  0.010469  0.000000
  0.174329  0.008603  0.000000
  0.190482  0.008616  0.000000
  0.170723  0.014008  0.000000
  0.227340  0.027863  0.000000
  0.202622  0.014278  0.000000
  0.205646  0.026310  0.000000
  0.186379  0.025489  0.000000
  0.176393  0.029501  0.000000
  0.183252  0.037650  0.000000
  0.174591  0.040032  0.000000
  0.179687  0.050112  0.000000
  0.159171  0.050340  0.000000
  0.136997  0.047569  0.000000
  0.145430  0.054116  0.000000
  0.130811  0.056114  0.000000
  0.138308  0.065614  0.000000
  0.138253  0.070221  0.000000
  0.131346  0.077785  0.000000
  0.119102  0.083403  0.000000
  0.130158  0.088472  0.000000
  0.118985  0.092309  0.000000
  0.115137  0.098477  0.000000
  0.117890  0.105971  0.000000
  0.108870  0.108935  0.000000
  0.111402  0.116198  0.000000
  0.107513  0.122791  0.000000
  0.103909  0.128484  0.000000
  0.100847  0.135173  0.000000
  0.096804  0.140648  0.000000
  0.225506  0.011374  0.000000
  0.214908  0.014448  0.000000
  0.259341  0.020555  0.000000
  0.226519  0.013855  0.000000
  0.265272  0.027912  0.000000
  0.238029  0.010910  0.000000
  0.242440  0.025134  0.000000
  0.215053  0.023534  0.000000
  0.229818  0.027914  0.000000
  0.217316  0.033307  0.000000
  0.202859  0.029849  0.000000
  0.190861  0.030716  0.000000
  0.192534  0.043861  0.000000
  0.166302  0.047650  0.000000
  0.171645  0.062318  0.000000
  0.158357  0.061044  0.000000
  0.149357  0.058915  0.000000
  0.166016  0.064879  0.000000
  0.150075  0.071396  0.000000
  0.155833  0.072618  0.000000
  0.146886  0.083419  0.000000
  0.139578  0.084113  0.000000
  0.140403  0.095491  0.000000
  0.132584  0.096396  0.000000
  0.133883  0.104854  0.000000
  0.128494  0.111254  0.000000
  0.124444  0.116277  0.000000
  0.120905  0.124345  0.000000
  0.116498  0.135086  0.000000
  0.113787  0.136476  0.000000
  0.266707  0.010868  0.000000
  0.248595  0.011917  0.000000
  0.272584  0.012987  0.000000
  0.256092  0.011622  0.000000
  0.289250  0.015147  0.000000
  0.279664  0.016431  0.000000
  0.274071  0.024135  0.000000
  0.254739  0.027601  0.000000
  0.242885  0.019164  0.000000
  0.246038  0.033855  0.000000
  0.222060  0.039596  0.000000
  0.219116  0.047907  0.000000
  0.215440  0.053435  0.000000
  0.201646  0.039641  0.000000
  0.203366  0.051501  0.000000
  0.177903  0.054313  0.000000
  0.192755  0.049428  0.000000
  0.188396  0.060602  0.000000
  0.181596  0.067869  0.000000
  0.172718  0.073735  0.000000
  0.172037  0.081007  0.000000
  0.157892  0.081396  0.000000
  0.157945  0.088330  0.000000
  0.152957  0.093446  0.000000
  0.152760  0.101511  0.000000
  0.145344  0.107667  0.000000
  0.141667  0.113632  0.000000
  0.135475  0.122846  0.000000
  0.130416  0.129417  0.000000
  0.128683  0.134538  0.000000
  0.322606  0.010726  0.000000
  0.291481  0.010274  0.000000
  0.334717  0.011090  0.000000
  0.301242  0.013268  0.000000
  0.335383  0.030187  0.000000
  0.308931  0.010814  0.000000
  0.332481  0.026700  0.000000
  0.288680  0.026115  0.000000
  0.272259  0.036113  0.000000
  0.260375  0.037184  0.000000
  0.253033  0.041351  0.000000
  0.249253  0.046353  0.000000
  0.209465  0.041894  0.000000
  0.237163  0.038217  0.000000
  0.233493  0.043177  0.000000
  0.230523  0.053514  0.000000
  0.212558  0.063561  0.000000
  0.203132  0.059438  0.000000
  0.204527  0.069030  0.000000
  0.192898  0.064452  0.000000
  0.196373  0.075058  0.000000
  0.186459  0.077060  0.000000
  0.181656  0.082502  0.000000
  0.172760  0.088734  0.000000
  0.170901  0.095491  0.000000
  0.163549  0.103270  0.000000
  0.157998  0.110860  0.000000
  0.153764  0.116423  0.000000
  0.148188  0.125627  0.000000
  0.143882  0.128607  0.000000
  0.364735  0.011015  0.000000
  0.324975  0.015981  0.000000
  0.382662  0.012248  0.000000
  0.352557  0.011040  0.000000
  0.376778  0.012081  0.000000
  0.342343  0.012463  0.000000
  0.352790  0.018574  0.000000
  0.340194  0.021081  0.000000
  0.318139  0.024923  0.000000
  0.309642  0.036054  0.000000
  0.312586  0.016358  0.000000
  0.282151  0.030783  0.000000
  0.277731  0.041525  0.000000
  0.282144  0.053547  0.000000
  0.269161  0.046747  0.000000
  0.251083  0.058389  0.000000
  0.240827  0.050554  0.000000
  0.234938  0.058925  0.000000
  0.234337  0.067966  0.000000
  0.222392  0.061922  0.000000
  0.216177  0.074762  0.000000
  0.211710  0.078604  0.000000
  0.199011  0.082661  0.000000
  0.199022  0.087507  0.000000
  0.189491  0.095057  0.000000
  0.182008  0.099703  0.000000
  0.172651  0.104554  0.000000
  0.169587  0.115431  0.000000
  0.166163  0.127684  0.000000
  0.158199  0.126855  0.000000
  0.430735  0.013964  0.000000
  0.404471  0.010939  0.000000
  0.440432  0.010865  0.000000
  0.415056  0.012624  0.000000
  0.426545  0.011672  0.000000
  0.393901  0.010913  0.000000
  0.392430  0.016292  0.000000
  0.373027  0.024088  0.000000
  0.365608  0.015487  0.000000
  0.355584  0.025565  0.000000
  0.349069  0.036806  0.000000
  0.319617  0.029921  0.000000
  0.303437  0.028607  0.000000
  0.307202  0.045533  0.000000
  0.290791  0.039360  0.000000
  0.287814  0.046288  0.000000
  0.278539  0.059238  0.000000
  0.265766  0.051189  0.000000
  0.270195  0.062443  0.000000
  0.259756  0.057183  0.000000
  0.248032  0.064207  0.000000
  0.248263  0.071622  0.000000
  0.225583  0.070800  0.000000
  0.226925  0.082804  0.000000
  0.214915  0.088627  0.000000
  0.201732  0.095916  0.000000
  0.195255  0.103092  0.000000
  0.189621  0.108643  0.000000
  0.180247  0.115801  0.000000
  0.174746  0.120084  0.000000
  0.526262  0.012036  0.000000
  0.480004  0.013263  0.000000
  0.488649  0.010137  0.000000
  0.461900  0.010641  0.000000
  0.474615  0.011916  0.000000
  0.447551  0.013138  0.000000
  0.428436  0.026773  0.000000
  0.427933  0.025460  0.000000
  0.412046  0.015410  0.000000
  0.395572  0.025040  0.000000
  0.379474  0.024986  0.000000
  0.367301  0.031167  0.000000
  0.354860  0.032194  0.000000
  0.358836  0.045427  0.000000
  0.324960  0.038547  0.000000
  0.325399  0.049286  0.000000
  0.317610  0.042892  0.000000
  0.298783  0.025566  0.000000
  0.297279  0.036495  0.000000
  0.308214  0.051546  0.000000
  0.292150  0.056957  0.000000
  0.275560  0.069441  0.000000
  0.260461  0.067576  0.000000
  0.239385  0.078348  0.000000
  0.233683  0.079750  0.000000
  0.221585  0.089260  0.000000
  0.215278  0.096995  0.000000
  0.207411  0.103771  0.000000
  0.200040  0.117015  0.000000
  0.189680  0.116115  0.000000
  0.569748  0.011510  0.000000
  0.532961  0.013873  0.000000
  0.547727  0.012201  0.000000
  0.515837  0.013824  0.000000
  0.534265  0.027419  0.000000
  0.497861  0.013572  0.000000
  0.474431  0.025416  0.000000
  0.478572  0.034711  0.000000
  0.442768  0.021841  0.000000
  0.460128  0.027712  0.000000
  0.442426  0.035017  0.000000
  0.414271  0.026563  0.000000
  0.399213  0.028904  0.000000
  0.407596  0.039982  0.000000
  0.384589  0.033941  0.000000
  0.367365  0.039479  0.000000
  0.372905  0.052066  0.000000
  0.341100  0.040491  0.000000
  0.344446  0.054028  0.000000
  0.337019  0.042067  0.000000
  0.319714  0.057322  0.000000
  0.302052  0.054964  0.000000
  0.294745  0.063170  0.000000
  0.272111  0.077745  0.000000
  0.260897  0.076293  0.000000
  0.248869  0.084556  0.000000
  0.241560  0.095276  0.000000
  0.229046  0.100640  0.000000
  0.218622  0.108999  0.000000
  0.209615  0.111316  0.000000
  0.620000  0.009209  0.000000
  0.593217  0.015601  0.000000
  0.608184  0.011842  0.000000
  0.585733  0.010355  0.000000
  0.560013  0.026902  0.000000
  0.556120  0.010807  0.000000
  0.510369  0.009870  0.000000
  0.521886  0.038197  0.000000
  0.481916  0.026131  0.000000
  0.497777  0.016295  0.000000
  0.489608  0.027587  0.000000
  0.456242  0.013756  0.000000
  0.467128  0.018667  0.000000
  0.460924  0.030061  0.000000
  0.410790  0.028198  0.000000
  0.425332  0.037761  0.000000
  0.417917  0.038607  0.000000
  0.389335  0.034280  0.000000
  0.387835  0.048485  0.000000
  0.375187  0.038664  0.000000
  0.356191  0.046826  0.000000
  0.332113  0.053611  0.000000
  0.322154  0.063674  0.000000
  0.309095  0.064910  0.000000
  0.288503  0.069033  0.000000
  0.280274  0.079563  0.000000
  0.256942  0.080175  0.000000
  0.247639  0.090324  0.000000
  0.240551  0.107716  0.000000
  0.225836  0.104955  0.000000
  0.645554  0.012374  0.000000
  0.634937  0.010578  0.000000
  0.612992  0.017320  0.000000
  0.620305  0.036571  0.000000
  0.601004  0.012198  0.000000
  0.572403  0.012992  0.000000
  0.594759  0.026929  0.000000
  0.574197  0.026453  0.000000
  0.538426  0.015023  0.000000
  0.556107  0.017106  0.000000
  0.547812  0.024503  0.000000
  0.525616  0.027328  0.000000
  0.506332  0.026150  0.000000
  0.517276  0.019823  0.000000
  0.494802  0.038960  0.000000
  0.470489  0.043465  0.000000
  0.455956  0.040881  0.000000
  0.445528  0.026148  0.000000
  0.439473  0.038327  0.000000
  0.417108  0.052396  0.000000
  0.401367  0.040559  0.000000
  0.381456  0.048936  0.000000
  0.358355  0.057702  0.000000
  0.350675  0.062961  0.000000
  0.333188  0.062310  0.000000
  0.310976  0.071435  0.000000
  0.292601  0.075361  0.000000
  0.275916  0.088411  0.000000
  0.264133  0.096691  0.000000
  0.243901  0.099027  0.000000
  0.667363  0.024773  0.000000
  0.675291  0.030894  0.000000
  0.665997  0.013412  0.000000
  0.645636  0.021701  0.000000
  0.650043  0.040208  0.000000
  0.627221  0.016320  0.000000
  0.634469  0.019834  0.000000
  0.621158  0.022118  0.000000
  0.607682  0.048689  0.000000
  0.606113  0.031046  0.000000
  0.585251  0.016237  0.000000
  0.571395  0.024121  0.000000
  0.566944  0.039383  0.000000
  0.556589  0.033882  0.000000
  0.540088  0.029830  0.000000
  0.536373  0.039013  0.000000
  0.502351  0.039855  0.000000
  0.499246  0.027757  0.000000
  0.475943  0.042115  0.000000
  0.455255  0.038612  0.000000
  0.429090  0.044295  0.000000
  0.423864  0.052845  0.000000
  0.403129  0.048917  0.000000
  0.394363  0.064980  0.000000
  0.363085  0.068262  0.000000
  0.344826  0.059964  0.000000
  0.330678  0.070346  0.000000
  0.306167  0.074793  0.000000
  0.288225  0.089284  0.000000
  0.270284  0.089009  0.000000
  0.689985  0.011895  0.000000
  0.686271  0.057793  0.000000
  0.686382  0.032120  0.000000
  0.677198  0.010461  0.000000
  0.677760  0.017548  0.000000
  0.660692  0.013437  0.000000
  0.651966  0.011819  0.000000
  0.656350  0.025373  0.000000
  0.622468  0.031169  0.000000
  0.621226  0.055575  0.000000
  0.636675  0.038142  0.000000
  0.641583  0.029313  0.000000
  0.634135  0.036425  0.000000
  0.617152  0.051339  0.000000
  0.586332  0.031058  0.000000
  0.579802  0.034716  0.000000
  0.560196  0.042247  0.000000
  0.540813  0.047754  0.000000
  0.520170  0.035926  0.000000
  0.508007  0.049189  0.000000
  0.492744  0.044842  0.000000
  0.479621  0.058327  0.000000
  0.445736  0.055516  0.000000
  0.441230  0.047712  0.000000
  0.409801  0.056259  0.000000
  0.391986  0.051232  0.000000
  0.367057  0.072540  0.000000
  0.338886  0.080479  0.000000
  0.302208  0.086103  0.000000
  0.294807  0.085456  0.000000
  0.687827  0.053020  0.000000
  0.689840  0.030300  0.000000
  0.685571  0.016756  0.000000
  0.674645  0.100657  0.000000
  0.677543  0.120327  0.000000
  0.689526  0.082414  0.000000
  0.686214  0.087301  0.000000
  0.679472  0.048360  0.000000
  0.673175  0.036619  0.000000
  0.670542  0.050079  0.000000
  0.660922  0.042937  0.000000
  0.663401  0.031719  0.000000
  0.650550  0.035568  0.000000
  0.645736  0.053439  0.000000
  0.605789  0.027361  0.000000
  0.625002  0.046353  0.000000
  0.594476  0.034683  0.000000
  0.598722  0.046226  0.000000
  0.568518  0.055270  0.000000
  0.559963  0.052042  0.000000
  0.528651  0.057804  0.000000
  0.511525  0.031644  0.000000
  0.511222  0.056365  0.000000
  0.465543  0.051816  0.000000
  0.450623  0.057412  0.000000
  0.440182  0.057941  0.000000
  0.408203  0.066244  0.000000
  0.370866  0.058389  0.000000
  0.335714  0.079250  0.000000
  0.321733  0.077683  0.000000
  0.644596  0.158107  0.000000
  0.686529  0.041861  0.000000
  0.646842  0.130284  0.000000
  0.688253  0.224999  0.000000
  0.654513  0.131856  0.000000
  0.687321  0.101270  0.000000
  0.680183  0.070109  0.000000
  0.680103  0.064113  0.000000
  0.686858  0.110772  0.000000
  0.681630  0.079080  0.000000
  0.685741  0.094451  0.000000
  0.670611  0.056740  0.000000
  0.661629  0.066280  0.000000
  0.657693  0.061438  0.000000
  0.660425  0.047957  0.000000
  0.651735  0.057973  0.000000
  0.632714  0.050026  0.000000
  0.608289  0.040905  0.000000
  0.581034  0.045717  0.000000
  0.588491  0.046987  0.000000
  0.572992  0.045530  0.000000
  0.548065  0.039762  0.000000
  0.529024  0.045175  0.000000
  0.507867  0.053388  0.000000
  0.487767  0.052482  0.000000
  0.467976  0.052488  0.000000
  0.423793  0.060260  0.000000
  0.398549  0.063530  0.000000
  0.374225  0.068482  0.000000
  0.356051  0.075738  0.000000
 -0.010000  0.500000  0.000000
 -0.010000  0.490000  0.000000
 -0.010000  0.480000  0.000000
 -0.010000  0.470000  0.000000
 -0.010000  0.460000  0.000000
 -0.010000  0.450000  0.000000
 -0.010000  0.440000  0.000000
 -0.010000  0.430000  0.000000
 -0.010000  0.420000  0.000000
 -0.010000  0.410000  0.000000
 -0.010000  0.400000  0.000000
 -0.010000  0.390000  0.000000
 -0.010000  0.380000  0.000000
 -0.010000  0.370000  0.000000
 -0.010000  0.360000  0.000000
 -0.010000  0.350000  0.000000
 -0.010000  0.340000  0.000000
 -0.010000  0.330000  0.000000
 -0.010000  0.320000  0.000000
 -0.010000  0.310000  0.000000
 -0.010000  0.300000  0.000000
 -0.010000  0.290000  0.000000
 -0.010000  0.280000  0.000000
 -0.010000  0.270000  0.000000
 -0.010000  0.260000  0.000000
 -0.010000  0.250000  0.000000
 -0.010000  0.240000  0.000000
 -0.010000  0.230000  0.000000
 -0.010000  0.220000  0.000000
 -0.010000  0.210000  0.000000
 -0.010000  0.200000  0.000000
 -0.010000  0.190000  0.000000
 -0.010000  0.180000  0.000000
 -0.010000  0.170000  0.000000
 -0.010000  0.160000  0.000000
 -0.010000  0.150000  0.000000
 -0.010000  0.140000  0.000000
 -0.010000  0.130000  0.000000
 -0.010000  0.120000  0.000000
 -0.010000  0.110000  0.000000
 -0.010000  0.100000  0.000000
 -0.010000  0.090000  0.000000
 -0.010000  0.080000  0.000000
 -0.010000  0.070000  0.000000
 -0.010000  0.060000  0.000000
 -0.010000  0.050000  0.000000
 -0.010000  0.040000  0.000000
 -0.010000  0.030000  0.000000
 -0.010000  0.020000  0.000000
 -0.010000  0.010000  0.000000
 -0.100000 -0.010000  0.000000
 -0.090000 -0.010000  0.000000
 -0.080000 -0.010000  0.000000
 -0.070000 -0.010000  0.000000
 -0.060000 -0.010000  0.000000
 -0.050000 -0.010000  0.000000
 -0.040000 -0.010000  0.000000
 -0.030000 -0.010000  0.000000