<?xml version="1.0" encoding="UTF-8"?>
<VTKFile type="UnstructuredGrid" version="1.0" byte_order="LittleEndian">
<UnstructuredGrid>
  <Piece NumberOfPoints="1545" NumberOfCells="1545">
      <PointData>
        <DataArray type="Int32" Name="Type" format="ascii">
 1 1 1 1 1 1 1 1 1 1
 1 1 1 1 1 1 1 1 1 1
 1 1 1 1 1 1 1 1 1 1
 1 1 1 1 1 1 1 1 1 1
 1 1 1 1 1 1 1 1 1 1
 1 1 1 1 1 1 1 1 1 1
 1 3 3 3 3 3 3 3 3 3
 3 3 3 3 3 3 3 3 3 3
 3 3 3 3 3 3 3 3 3 3
 3 3 3 3 3 3 3 3 3 3
 3 3 3 3 3 3 3 3 3 3
 3 3 3 3 3 3 3 3 3 3
 3 3 3 3 3 3 3 3 3 3
 1 1 1 1 1 1 1 1 1 1
 1 1 1 1 1 1 1 1 1 1
 1 1 1 1 1 1 1 1 1 1
 1 1 1 1 1 1 1 1 1 1
 1 1 1 1 1 1 1 1 1 1
 1 1 1 1 1 1 1 1 1 1
 1 2 2 2 2 2 2 2 2 2
 2 2 2 2 2 2 2 2 2 2
 2 2 2 2 2 2 2 2 2 2
 2 2 2 2 2 2 2 2 2 2
 2 2 2 2 2 2 2 2 2 2
 2 2 2 2 2 2 2 2 2 2
 2 2 2 2 2 2 2 2 2 2
 2 2 2 2 2 2 2 2 2 2
 2 2 2 2 2 2 2 2 2 2
 2 2 2 2 2 2 2 2 2 2
 2 2 2 2 2 2 2 2 2 2
 2 2 2 2 2 2 2 2 2 2
 2 2 2 2 2 2 2 2 2 2
 2 2 2 2 2 2 2 2 2 2
 2 2 2 2 2 2 2 2 2 2
 2 2 2 2 2 2 2 2 2 2
 2 2 2 2 2 2 2 2 2 2
 2 2 2 2 2 2 2 2 2 2
 2 2 2 2 2 2 2 2 2 2
 2 2 2 2 2 2 2 2 2 2
 2 2 2 2 2 2 2 2 2 2
 2 2 2 2 2 2 2 2 2 2
 2 2 2 2 2 2 2 2 2 2
 2 2 2 2 2 2 2 2 2 2
 2 2 2 2 2 2 2 2 2 2
 2 2 2 2 2 2 2 2 2 2
 2 2 2 2 2 2 2 2 2 2
 2 2 2 2 2 2 2 2 2 2
 2 2 2 2 2 2 2 2 2 2
 2 2 2 2 2 2 2 2 2 2
 2 2 2 2 2 2 2 2 2 2
 2 2 2 2 2 2 2 2 2 2
 2 2 2 2 2 2 2 2 2 2
 2 2 2 2 2 2 2 2 2 2
 2 2 2 2 2 2 2 2 2 2
 2 2 2 2 2 2 2 2 2 2
 2 2 2 2 2 2 2 2 2 2
 2 2 2 2 2 2 2 2 2 2
 2 2 2 2 2 2 2 2 2 2
 2 2 2 2 2 2 2 2 2 2
 2 2 2 2 2 2 2 2 2 2
 2 2 2 2 2 2 2 2 2 2
 2 2 2 2 2 2 2 2 2 2
 2 2 2 2 2 2 2 2 2 2
 2 2 2 2 2 2 2 2 2 2
 2 2 2 2 2 2 2 2 2 2
 2 2 2 2 2 2 2 2 2 2
 2 2 2 2 2 2 2 2 2 2
 2 2 2 2 2 2 2 2 2 2
 2 2 2 2 2 2 2 2 2 2
 2 2 2 2 2 2 2 2 2 2
 2 2 2 2 2 2 2 2 2 2
 2 2 2 2 2 2 2 2 2 2
 2 2 2 2 2 2 2 2 2 2
 2 2 2 2 2 2 2 2 2 2
 2 2 2 2 2 2 2 2 2 2
 2 2 2 2 2 2 2 2 2 2
 2 2 2 2 2 2 2 2 2 2
 2 2 2 2 2 2 2 2 2 2
 2 0 0 0 0 0 0 0 0 0
 0 0 0 0 0 0 0 0 0 0
 0 0 0 0 0 0 0 0 0 0
 0 0 0 0 0 0 0 0 0 0
 0 0 0 0 0 0 0 0 0 0
 0 0 0 0 0 0 0 0 0 0
 0 0 0 0 0 0 0 0 0 0
 0 0 0 0 0 0 0 0 0 0
 0 0 0 0 0 0 0 0 0 0
 0 0 0 0 0 0 0 0 0 0
 0 0 0 0 0 0 0 0 0 0
 0 0 0 0 0 0 0 0 0 0
 0 0 0 0 0 0 0 0 0 0
 0 0 0 0 0 0 0 0 0 0
 0 0 0 0 0 0 0 0 0 0
 0 0 0 0 0 0 0 0 0 0
 0 0 0 0 0 0 0 0 0 0
 0 0 0 0 0 0 0 0 0 0
 0 0 0 0 0 0 0 0 0 0
 0 0 0 0 0 0 0 0 0 0
 0 0 0 0 0 0 0 0 0 0
 0 0 0 0 0 0 0 0 0 0
 0 0 0 0 0 0 0 0 0 0
 0 0 0 0 0 0 0 0 0 0
 0 0 0 0 0 0 0 0 0 0
 0 0 0 0 0 0 0 0 0 0
 0 0 0 0 0 0 0 0 0 0
 0 0 0 0 0 0 0 0 0 0
 0 0 0 0 0 0 0 0 0 0
 0 0 0 0 0 0 0 0 0 0
 0 0 0 0 0 0 0 0 0 0
 0 0 0 0 0 0 0 0 0 0
 0 0 0 0 0 0 0 0 0 0
 0 0 0 0 0 0 0 0 0 0
 0 0 0 0 0 0 0 0 0 0
 0 0 0 0 0 0 0 0 0 0
 0 0 0 0 0 0 0 0 0 0
 0 0 0 0 0 0 0 0 0 0
 0 0 0 0 0 0 0 0 0 0
 0 0 0 0 0 0 0 0 0 0
 0 0 0 0 0 0 0 0 0 0
 0 0 0 0 0 0 0 0 0 0
 0 0 0 0 0 0 0 0 0 0
 0 0 0 0 0 0 0 0 0 0
 0 0 0 0 0 0 0 0 0 0
 0 0 0 0 0 0 0 0 0 0
 0 0 0 0 0 0 0 0 0 0
 0 0 0 0 0 0 0 0 0 0
 0 0 0 0 0 0 0 0 0 0
 0 0 0 0 0 0 0 0 0 0
 0 0 0 0 0 0 0 0 0 0
 0 0 0 0 0 0 0 0 0 0
 0 0 0 0 0 0 0 0 0 0
 0 0 0 0 0 0 0 0 0 0
 0 0 0 0 0 0 0 0 0 0
 0 0 0 0 0 0 0 0 0 0
 0 0 0 0 0 0 0 0 0 0
 0 0 0 0 0 0 0 0 0 0
 0 0 0 0 0 0 0 0 0 0
 0 0 0 0 0 0 0 0 0 0
 0 0 0 0 0 0 0 0 0 0
 0 0 0 0 0 0 0 0 0 0
 0 0 0 0 0 0 0 0 0 0
 0 0 0 0 0 0 0 0 0 0
 0 0 0 0 0 0 0 0 0 0
 0 0 0 0 0 0 0 0 0 0
 0 0 0 0 0 0 0 0 0 0
 0 0 0 0 0 0 0 0 0 0
 0 0 0 0 0 0 0 0 0 0
 0 0 0 0 0 0 0 0 0 0
 0 0 0 0 0 0 0 0 0 0
 0 0 0 0 0 0 0 0 0 0
 0 0 0 0 0 0 0 0 0 0
 0 0 0 0 0 0 0 0 0 0
 0 0 0 0 0 0 0 0 0 0
 0 0 0 0 0 0 0 0 0 0
 0 0 0 0 0
        </DataArray>
      </PointData>
      <Points>
        <DataArray type="Float32" NumberOfComponents="3" format="ascii">
  0.000000  0.500000  0.000000
  0.000000  0.490000  0.000000
  0.000000  0.480000  0.000000
  0.000000  0.470000  0.000000
  0.000000  0.460000  0.000000
  0.000000  0.450000  0.000000
  0.000000  0.440000  0.000000
  0.000000  0.430000  0.000000
  0.000000  0.420000  0.000000
  0.000000  0.410000  0.000000
  0.000000  0.400000  0.000000
  0.000000  0.390000  0.000000
  0.000000  0.380000  0.000000
  0.000000  0.370000  0.000000
  0.000000  0.360000  0.000000
  0.000000  0.350000  0.000000
  0.000000  0.340000  0.000000
  0.000000  0.330000  0.000000
  0.000000  0.320000  0.000000
  0.000000  0.310000  0.000000
  0.000000  0.300000  0.000000
  0.000000  0.290000  0.000000
  0.000000  0.280000  0.000000
  0.000000  0.270000  0.000000
  0.000000  0.260000  0.000000
  0.000000  0.250000  0.000000
  0.000000  0.240000  0.000000
  0.000000  0.230000  0.000000
  0.000000  0.220000  0.000000
  0.000000  0.210000  0.000000
  0.000000  0.200000  0.000000
  0.000000  0.190000  0.000000
  0.000000  0.180000  0.000000
  0.000000  0.170000  0.000000
  0.000000  0.160000  0.000000
  0.000000  0.150000  0.000000
  0.000000  0.140000  0.000000
  0.000000  0.130000  0.000000
  0.000000  0.120000  0.000000
  0.000000  0.110000  0.000000
  0.000000  0.100000  0.000000
  0.000000  0.090000  0.000000
  0.000000  0.080000  0.000000
  0.000000  0.070000  0.000000
  0.000000  0.060000  0.000000
  0.000000  0.050000  0.000000
  0.000000  0.040000  0.000000
  0.000000  0.030000  0.000000
  0.000000  0.020000  0.000000
  0.000000  0.010000  0.000000
 -0.100000  0.000000  0.000000
 -0.090000  0.000000  0.000000
 -0.080000  0.000000  0.000000
 -0.070000  0.000000  0.000000
 -0.060000  0.000000  0.000000
 -0.050000  0.000000  0.000000
 -0.040000  0.000000  0.000000
 -0.030000  0.000000  0.000000
 -0.020000  0.000000  0.000000
 -0.010000  0.000000  0.000000
 -0.000000  0.000000  0.000000
  0.010000  0.000000  0.000000
  0.020000  0.000000  0.000000
  0.030000  0.000000  0.000000
  0.040000  0.000000  0.000000
  0.050000  0.000000  0.000000
  0.060000  0.000000  0.000000
  0.070000  0.000000  0.000000
  0.080000  0.000000  0.000000
  0.090000  0.000000  0.000000
  0.100000  0.000000  0.000000
  0.110000  0.000000  0.000000
  0.120000  0.000000  0.000000
  0.130000  0.000000  0.000000
  0.140000  0.000000  0.000000
  0.150000  0.000000  0.000000
  0.160000  0.000000  0.000000
  0.170000  0.000000  0.000000
  0.180000  0.000000  0.000000
  0.190000  0.000000  0.000000
  0.200000  0.000000  0.000000
  0.210000  0.000000  0.000000
  0.220000  0.000000  0.000000
  0.230000  0.000000  0.000000
  0.240000  0.000000  0.000000
  0.250000  0.000000  0.000000
  0.260000  0.000000  0.000000
  0.270000  0.000000  0.000000
  0.280000  0.000000  0.000000
  0.290000  0.000000  0.000000
  0.300000  0.000000  0.000000
  0.310000  0.000000  0.000000
  0.320000  0.000000  0.000000
  0.330000  0.000000  0.000000
  0.340000  0.000000  0.000000
  0.350000  0.000000  0.000000
  0.360000  0.000000  0.000000
  0.370000  0.000000  0.000000
  0.380000  0.000000  0.000000
  0.390000  0.000000  0.000000
  0.400000  0.000000  0.000000
  0.410000  0.000000  0.000000
  0.420000  0.000000  0.000000
  0.430000  0.000000  0.000000
  0.440000  0.000000  0.000000
  0.450000  0.000000  0.000000
  0.460000  0.000000  0.000000
  0.470000  0.000000  0.000000
  0.480000  0.000000  0.000000
  0.490000  0.000000  0.000000
  0.500000  0.000000  0.000000
  0.510000  0.000000  0.000000
  0.520000  0.000000  0.000000
  0.530000  0.000000  0.000000
  0.540000  0.000000  0.000000
  0.550000  0.000000  0.000000
  0.560000  0.000000  0.000000
  0.570000  0.000000  0.000000
  0.580000  0.000000  0.000000
  0.590000  0.000000  0.000000
  0.600000  0.000000  0.000000
  0.610000  0.000000  0.000000
  0.620000  0.000000  0.000000
  0.630000  0.000000  0.000000
  0.640000  0.000000  0.000000
  0.650000  0.000000  0.000000
  0.660000  0.000000  0.000000
  0.670000  0.000000  0.000000
  0.680000  0.000000  0.000000
  0.690000  0.000000  0.000000
  0.700000  0.000000  0.000000
  0.710000  0.000000  0.000000
  0.720000  0.000000  0.000000
  0.730000  0.000000  0.000000
  0.740000  0.000000  0.000000
  0.750000  0.000000  0.000000
  0.760000  0.000000  0.000000
  0.770000  0.000000  0.000000
  0.780000  0.000000  0.000000
  0.790000  0.000000  0.000000
  0.800000  0.000000  0.000000
  0.700000  0.010000  0.000000
  0.700000  0.020000  0.000000
  0.700000  0.030000  0.000000
  0.700000  0.040000  0.000000
  0.700000  0.050000  0.000000
  0.700000  0.060000  0.000000
  0.700000  0.070000  0.000000
  0.700000  0.080000  0.000000
  0.700000  0.090000  0.000000
  0.700000  0.100000  0.000000
  0.700000  0.110000  0.000000
  0.700000  0.120000  0.000000
  0.700000  0.130000  0.000000
  0.700000  0.140000  0.000000
  0.700000  0.150000  0.000000
  0.700000  0.160000  0.000000
  0.700000  0.170000  0.000000
  0.700000  0.180000  0.000000
  0.700000  0.190000  0.000000
  0.700000  0.200000  0.000000
  0.700000  0.210000  0.000000
  0.700000  0.220000  0.000000
  0.700000  0.230000  0.000000
  0.700000  0.240000  0.000000
  0.700000  0.250000  0.000000
  0.700000  0.260000  0.000000
  0.700000  0.270000  0.000000
  0.700000  0.280000  0.000000
  0.700000  0.290000  0.000000
  0.700000  0.300000  0.000000
  0.700000  0.310000  0.000000
  0.700000  0.320000  0.000000
  0.700000  0.330000  0.000000
  0.700000  0.340000  0.000000
  0.700000  0.350000  0.000000
  0.700000  0.360000  0.000000
  0.700000  0.370000  0.000000
  0.700000  0.380000  0.000000
  0.700000  0.390000  0.000000
  0.700000  0.400000  0.000000
  0.700000  0.410000  0.000000
  0.700000  0.420000  0.000000
  0.700000  0.430000  0.000000
  0.700000  0.440000  0.000000
  0.700000  0.450000  0.000000
  0.700000  0.460000  0.000000
  0.700000  0.470000  0.000000
  0.700000  0.480000  0.000000
  0.700000  0.490000  0.000000
  0.700000  0.500000  0.000000
  0.020421  0.010096  0.000000
  0.024528  0.015271  0.000000
  0.043357  0.014936  0.000000
  0.009813  0.009688  0.000000
  0.051430  0.022470  0.000000
  0.009771  0.019839  0.000000
  0.058454  0.026651  0.000000
  0.057411  0.013367  0.000000
  0.094240  0.026698  0.000000
  0.068283  0.027230  0.000000
  0.077223  0.032050  0.000000
  0.012116  0.027135  0.000000
  0.022813  0.039598  0.000000
  0.010432  0.036329  0.000000
  0.010304  0.044209  0.000000
  0.022687  0.046836  0.000000
  0.052101  0.050778  0.000000
  0.011388  0.053369  0.000000
  0.045198  0.054429  0.000000
  0.008823  0.062993  0.000000
  0.021585  0.056891  0.000000
  0.018471  0.072946  0.000000
  0.011068  0.072528  0.000000
  0.016235  0.087312  0.000000
  0.008505  0.083498  0.000000
  0.035536  0.081055  0.000000
  0.011647  0.098330  0.000000
  0.021389  0.092606  0.000000
  0.023773  0.081323  0.000000
  0.041678  0.098319  0.000000
  0.049198  0.008666  0.000000
  0.033634  0.008319  0.000000
  0.067469  0.008598  0.000000
  0.066439  0.016553  0.000000
  0.089655  0.008761  0.000000
  0.096912  0.016741  0.000000
  0.112126  0.008632  0.000000
  0.078460  0.010743  0.000000
  0.087005  0.028947  0.000000
  0.076832  0.022856  0.000000
  0.052391  0.038754  0.000000
  0.036355  0.018790  0.000000
  0.076657  0.042618  0.000000
  0.035198  0.027019  0.000000
  0.058964  0.042322  0.000000
  0.024335  0.031752  0.000000
  0.022428  0.024085  0.000000
  0.037947  0.033926  0.000000
  0.066620  0.049821  0.000000
  0.033580  0.045184  0.000000
  0.068592  0.055983  0.000000
  0.040463  0.042679  0.000000
  0.022014  0.061471  0.000000
  0.038758  0.064756  0.000000
  0.028823  0.075428  0.000000
  0.043455  0.081168  0.000000
  0.032727  0.065061  0.000000
  0.045303  0.073645  0.000000
  0.044222  0.090528  0.000000
  0.060021  0.085340  0.000000
  0.143609  0.009365  0.000000
  0.101920  0.010899  0.000000
  0.129602  0.009156  0.000000
  0.107924  0.020733  0.000000
  0.127012  0.012856  0.000000
  0.163311  0.008928  0.000000
  0.190423  0.013569  0.000000
  0.140536  0.024390  0.000000
  0.108319  0.032955  0.000000
  0.084525  0.016919  0.000000
  0.124893  0.024478  0.000000
  0.116218  0.015852  0.000000
  0.092883  0.043447  0.000000
  0.097773  0.064827  0.000000
  0.122614  0.052427  0.000000
  0.047888  0.030711  0.000000
  0.079389  0.045399  0.000000
  0.065117  0.036730  0.000000
  0.056524  0.058035  0.000000
  0.036123  0.054187  0.000000
  0.078370  0.058435  0.000000
  0.073634  0.069952  0.000000
  0.063714  0.065356  0.000000
  0.050763  0.067120  0.000000
  0.066150  0.075740  0.000000
  0.056789  0.072967  0.000000
  0.064119  0.086342  0.000000
  0.073066  0.104059  0.000000
  0.074651  0.087523  0.000000
  0.047605  0.092885  0.000000
  0.182541  0.008773  0.000000
  0.153003  0.010742  0.000000
  0.197876  0.009556  0.000000
  0.158730  0.019116  0.000000
  0.184438  0.037097  0.000000
  0.172857  0.012085  0.000000
  0.171603  0.032944  0.000000
  0.174627  0.019088  0.000000
  0.153761  0.033737  0.000000
  0.102661  0.029850  0.000000
  0.166181  0.033135  0.000000
  0.119145  0.026817  0.000000
  0.137895  0.036829  0.000000
  0.090582  0.039133  0.000000
  0.092755  0.054248  0.000000
  0.142917  0.016832  0.000000
  0.105638  0.042774  0.000000
  0.120242  0.037271  0.000000
  0.105245  0.048282  0.000000
  0.104561  0.057721  0.000000
  0.132222  0.055410  0.000000
  0.087511  0.056227  0.000000
  0.080515  0.066719  0.000000
  0.114069  0.067136  0.000000
  0.095401  0.069919  0.000000
  0.078092  0.084781  0.000000
  0.094706  0.091037  0.000000
  0.085251  0.075970  0.000000
  0.078596  0.095756  0.000000
  0.098615  0.090364  0.000000
  0.224346  0.011803  0.000000
  0.207427  0.013028  0.000000
  0.213505  0.012495  0.000000
  0.193931  0.021516  0.000000
  0.259786  0.014300  0.000000
  0.187239  0.028046  0.000000
  0.179932  0.023952  0.000000
  0.202353  0.024020  0.000000
  0.162000  0.023179  0.000000
  0.216489  0.031507  0.000000
  0.150424  0.028670  0.000000
  0.197704  0.035203  0.000000
  0.182377  0.041200  0.000000
  0.167653  0.044045  0.000000
  0.177570  0.058827  0.000000
  0.134182  0.025449  0.000000
  0.152905  0.041837  0.000000
  0.128741  0.039768  0.000000
  0.145296  0.058319  0.000000
  0.117869  0.043102  0.000000
  0.113469  0.056549  0.000000
  0.136046  0.049729  0.000000
  0.122695  0.066872  0.000000
  0.088957  0.078219  0.000000
  0.126547  0.079955  0.000000
  0.104286  0.075300  0.000000
  0.110739  0.074991  0.000000
  0.131122  0.088412  0.000000
  0.116825  0.087073  0.000000
  0.101810  0.087470  0.000000
  0.261398  0.010814  0.000000
  0.238666  0.011781  0.000000
  0.292768  0.019760  0.000000
  0.258254  0.030753  0.000000
  0.305515  0.013550  0.000000
  0.267149  0.034092  0.000000
  0.281329  0.012577  0.000000
  0.245886  0.010383  0.000000
  0.251554  0.018890  0.000000
  0.274141  0.021935  0.000000
  0.233633  0.024518  0.000000
  0.243300  0.021507  0.000000
  0.227837  0.012957  0.000000
  0.200006  0.042494  0.000000
  0.181885  0.053678  0.000000
  0.193033  0.047844  0.000000
  0.141235  0.041274  0.000000
  0.213306  0.044079  0.000000
  0.152816  0.050029  0.000000
  0.171081  0.046894  0.000000
  0.158039  0.051979  0.000000
  0.166359  0.059538  0.000000
  0.125452  0.062803  0.000000
  0.153669  0.068541  0.000000
  0.147324  0.072670  0.000000
  0.143274  0.061071  0.000000
  0.138270  0.074951  0.000000
  0.136393  0.073070  0.000000
  0.116204  0.084233  0.000000
  0.132766  0.087865  0.000000
  0.330771  0.011222  0.000000
  0.273879  0.011040  0.000000
  0.288917  0.011060  0.000000
  0.270409  0.022666  0.000000
  0.365598  0.023122  0.000000
  0.317243  0.010628  0.000000
  0.347066  0.010543  0.000000
  0.301970  0.011397  0.000000
  0.300616  0.023292  0.000000
  0.283395  0.031914  0.000000
  0.287230  0.026357  0.000000
  0.296314  0.039124  0.000000
  0.253511  0.030361  0.000000
  0.214626  0.021683  0.000000
  0.224129  0.026957  0.000000
  0.206258  0.031572  0.000000
  0.210804  0.044469  0.000000
  0.236085  0.040953  0.000000
  0.200130  0.058865  0.000000
  0.190558  0.054425  0.000000
  0.206523  0.057804  0.000000
  0.183400  0.068205  0.000000
  0.165737  0.063135  0.000000
  0.181019  0.070818  0.000000
  0.168038  0.073120  0.000000
  0.170945  0.083142  0.000000
  0.164767  0.098482  0.000000
  0.161321  0.076654  0.000000
  0.156678  0.085351  0.000000
  0.153233  0.085430  0.000000
  0.359022  0.013126  0.000000
  0.348013  0.015431  0.000000
  0.399503  0.027101  0.000000
  0.363897  0.012627  0.000000
  0.429287  0.027291  0.000000
  0.387925  0.011674  0.000000
  0.386111  0.023332  0.000000
  0.364588  0.028437  0.000000
  0.373886  0.010579  0.000000
  0.351759  0.025751  0.000000
  0.334614  0.013309  0.000000
  0.318975  0.015395  0.000000
  0.317732  0.024235  0.000000
  0.271503  0.037668  0.000000
  0.282097  0.048382  0.000000
  0.236419  0.029836  0.000000
  0.224965  0.037012  0.000000
  0.268162  0.051107  0.000000
  0.248725  0.037507  0.000000
  0.261391  0.045464  0.000000
  0.222054  0.057027  0.000000
  0.224590  0.047422  0.000000
  0.230760  0.058982  0.000000
  0.196589  0.068379  0.000000
  0.213880  0.060705  0.000000
  0.202654  0.070646  0.000000
  0.199810  0.077784  0.000000
  0.184928  0.080750  0.000000
  0.177316  0.081654  0.000000
  0.187126  0.090576  0.000000
  0.437501  0.010742  0.000000
  0.413814  0.010994  0.000000
  0.445525  0.013577  0.000000
  0.420478  0.013878  0.000000
  0.464413  0.025821  0.000000
  0.428544  0.011370  0.000000
  0.446321  0.037831  0.000000
  0.399922  0.013981  0.000000
  0.400867  0.011216  0.000000
  0.400399  0.027638  0.000000
  0.346343  0.033128  0.000000
  0.358006  0.035512  0.000000
  0.333850  0.038561  0.000000
  0.341789  0.025558  0.000000
  0.333358  0.023039  0.000000
  0.283535  0.038145  0.000000
  0.305271  0.029810  0.000000
  0.291310  0.052373  0.000000
  0.310025  0.050808  0.000000
  0.275361  0.049564  0.000000
  0.251242  0.046537  0.000000
  0.245913  0.047449  0.000000
  0.240506  0.060574  0.000000
  0.233169  0.045492  0.000000
  0.243951  0.060832  0.000000
  0.221505  0.072213  0.000000
  0.216557  0.069583  0.000000
  0.214767  0.084199  0.000000
  0.228423  0.083669  0.000000
  0.196882  0.084438  0.000000
  0.517767  0.017451  0.000000
  0.442097  0.023877  0.000000
  0.530033  0.011166  0.000000
  0.494950  0.014429  0.000000
  0.545670  0.025072  0.000000
  0.491624  0.012587  0.000000
  0.531834  0.024995  0.000000
  0.472043  0.020007  0.000000
  0.447555  0.027414  0.000000
  0.410334  0.020311  0.000000
  0.414661  0.036841  0.000000
  0.402280  0.038744  0.000000
  0.329033  0.031404  0.000000
  0.380447  0.012910  0.000000
  0.380965  0.024203  0.000000
  0.377246  0.032012  0.000000
  0.320408  0.042538  0.000000
  0.320675  0.028466  0.000000
  0.316120  0.042215  0.000000
  0.297561  0.042130  0.000000
  0.307384  0.034995  0.000000
  0.280378  0.064091  0.000000
  0.296774  0.055110  0.000000
  0.259814  0.058072  0.000000
  0.286469  0.075608  0.000000
  0.266634  0.067786  0.000000
  0.257105  0.059313  0.000000
  0.243867  0.070871  0.000000
  0.228036  0.066884  0.000000
  0.237367  0.077756  0.000000
  0.560215  0.022285  0.000000
  0.513800  0.028426  0.000000
  0.609235  0.011114  0.000000
  0.543792  0.011581  0.000000
  0.592468  0.013446  0.000000
  0.535272  0.014963  0.000000
  0.564731  0.012207  0.000000
  0.553469  0.010375  0.000000
  0.509582  0.013802  0.000000
  0.474506  0.009755  0.000000
  0.503833  0.010971  0.000000
  0.431541  0.022010  0.000000
  0.455795  0.022475  0.000000
  0.467083  0.042638  0.000000
  0.443579  0.048102  0.000000
  0.389035  0.035214  0.000000
  0.389162  0.041902  0.000000
  0.369678  0.036944  0.000000
  0.361407  0.046057  0.000000
  0.347829  0.057563  0.000000
  0.348162  0.058324  0.000000
  0.332586  0.051964  0.000000
  0.307764  0.052482  0.000000
  0.313063  0.077798  0.000000
  0.281517  0.061464  0.000000
  0.271983  0.069464  0.000000
  0.294537  0.082923  0.000000
  0.256717  0.080332  0.000000
  0.258749  0.071840  0.000000
  0.240874  0.077337  0.000000
  0.639757  0.021829  0.000000
  0.614394  0.013709  0.000000
  0.647503  0.029998  0.000000
  0.633501  0.011295  0.000000
  0.645399  0.010746  0.000000
  0.625660  0.010624  0.000000
  0.599554  0.010929  0.000000
  0.578377  0.010334  0.000000
  0.584161  0.013257  0.000000
  0.561746  0.028390  0.000000
  0.548811  0.018718  0.000000
  0.520168  0.010943  0.000000
  0.503626  0.026802  0.000000
  0.491483  0.026229  0.000000
  0.452558  0.011062  0.000000
  0.451674  0.042204  0.000000
  0.432632  0.039346  0.000000
  0.433185  0.036845  0.000000
  0.426255  0.050394  0.000000
  0.423215  0.044851  0.000000
  0.383155  0.045238  0.000000
  0.401784  0.046821  0.000000
  0.346200  0.042443  0.000000
  0.352553  0.045423  0.000000
  0.335398  0.045291  0.000000
  0.316285  0.062080  0.000000
  0.294735  0.079821  0.000000
  0.299409  0.068026  0.000000
  0.296799  0.065645  0.000000
  0.278178  0.077129  0.000000
  0.670922  0.021167  0.000000
  0.662852  0.076332  0.000000
  0.674476  0.042279  0.000000
  0.664760  0.019178  0.000000
  0.662181  0.057717  0.000000
  0.659269  0.029097  0.000000
  0.651571  0.033526  0.000000
  0.637149  0.034467  0.000000
  0.632739  0.021042  0.000000
  0.609749  0.025593  0.000000
  0.598894  0.022140  0.000000
  0.567569  0.014622  0.000000
  0.554134  0.038642  0.000000
  0.569813  0.049514  0.000000
  0.493302  0.036406  0.000000
  0.517015  0.055595  0.000000
  0.484297  0.023121  0.000000
  0.478791  0.013882  0.000000
  0.461046  0.014166  0.000000
  0.511407  0.042809  0.000000
  0.464583  0.032557  0.000000
  0.446157  0.060446  0.000000
  0.418764  0.024812  0.000000
  0.396499  0.061065  0.000000
  0.390831  0.054780  0.000000
  0.360765  0.057906  0.000000
  0.338710  0.062810  0.000000
  0.325632  0.052701  0.000000
  0.320953  0.063379  0.000000
  0.307662  0.069939  0.000000
  0.689530  0.065613  0.000000
  0.670729  0.066767  0.000000
  0.678147  0.031400  0.000000
  0.667658  0.035787  0.000000
  0.663201  0.140734  0.000000
  0.665170  0.009412  0.000000
  0.670439  0.059562  0.000000
  0.677434  0.074850  0.000000
  0.650077  0.061576  0.000000
  0.666817  0.088736  0.000000
  0.656986  0.040864  0.000000
  0.638602  0.054620  0.000000
  0.621498  0.029142  0.000000
  0.635619  0.072420  0.000000
  0.600785  0.031196  0.000000
  0.584631  0.025649  0.000000
  0.590772  0.059386  0.000000
  0.543457  0.036718  0.000000
  0.567320  0.036743  0.000000
  0.526926  0.027818  0.000000
  0.494171  0.034602  0.000000
  0.476204  0.030579  0.000000
  0.473543  0.058380  0.000000
  0.420331  0.067758  0.000000
  0.414278  0.051162  0.000000
  0.410416  0.066398  0.000000
  0.368516  0.050303  0.000000
  0.364734  0.068378  0.000000
  0.339492  0.068449  0.000000
  0.325711  0.067331  0.000000
  0.683666  0.050857  0.000000
  0.673197  0.160302  0.000000
  0.670292  0.119722  0.000000
  0.684203  0.119475  0.000000
  0.687532  0.157459  0.000000
  0.692148  0.048496  0.000000
  0.680733  0.009080  0.000000
  0.654113  0.124900  0.000000
  0.668557  0.106547  0.000000
  0.680284  0.049533  0.000000
  0.675852  0.103189  0.000000
  0.656308  0.016228  0.000000
  0.678212  0.018707  0.000000
  0.665598  0.043377  0.000000
  0.620353  0.020031  0.000000
  0.648258  0.062053  0.000000
  0.624019  0.037833  0.000000
  0.593653  0.031005  0.000000
  0.596553  0.044288  0.000000
  0.577930  0.023133  0.000000
  0.576352  0.031377  0.000000
  0.523022  0.038904  0.000000
  0.499072  0.073178  0.000000
  0.480879  0.041587  0.000000
  0.462618  0.043200  0.000000
  0.478613  0.058622  0.000000
  0.415662  0.034814  0.000000
  0.406326  0.049514  0.000000
  0.374461  0.045952  0.000000
  0.365372  0.065269  0.000000
  0.681384  0.089687  0.000000
  0.689672  0.020047  0.000000
  0.686143  0.176590  0.000000
  0.686358  0.270423  0.000000
  0.688169  0.035389  0.000000
  0.688014  0.013415  0.000000
  0.664330  0.185048  0.000000
  0.684560  0.190935  0.000000
  0.686408  0.030712  0.000000
  0.689915  0.085770  0.000000
  0.692222  0.140040  0.000000
  0.680818  0.079988  0.000000
  0.685922  0.115802  0.000000
  0.653707  0.158262  0.000000
  0.650415  0.148999  0.000000
  0.666932  0.099980  0.000000
  0.646992  0.108934  0.000000
  0.649640  0.013229  0.000000
  0.641600  0.046530  0.000000
  0.629578  0.049847  0.000000
  0.633895  0.032936  0.000000
  0.586284  0.037047  0.000000
  0.566716  0.049521  0.000000
  0.577126  0.052460  0.000000
  0.512618  0.050372  0.000000
  0.500683  0.053300  0.000000
  0.479162  0.038561  0.000000
  0.432733  0.066407  0.000000
  0.418108  0.061185  0.000000
  0.381604  0.059434  0.000000
  0.667395  0.252494  0.000000
  0.621214  0.298959  0.000000
  0.681501  0.131083  0.000000
  0.648531  0.215659  0.000000
  0.588531  0.350591  0.000000
  0.666126  0.211667  0.000000
  0.683795  0.210788  0.000000
  0.688947  0.228439  0.000000
  0.665793  0.290504  0.000000
  0.660096  0.205406  0.000000
  0.689194  0.100072  0.000000
  0.684627  0.157058  0.000000
  0.672527  0.166200  0.000000
  0.633937  0.149816  0.000000
  0.673816  0.148756  0.000000
  0.679069  0.147432  0.000000
  0.672529  0.117529  0.000000
  0.686552  0.100349  0.000000
  0.670230  0.131071  0.000000
  0.661047  0.075110  0.000000
  0.651636  0.089564  0.000000
  0.629193  0.062714  0.000000
  0.611727  0.032224  0.000000
  0.622946  0.047092  0.000000
  0.559351  0.038198  0.000000
  0.532306  0.061468  0.000000
  0.514853  0.030647  0.000000
  0.502205  0.048396  0.000000
  0.446672  0.050944  0.000000
  0.397558  0.063478  0.000000
  0.662164  0.207252  0.000000
  0.555656  0.427002  0.000000
  0.668822  0.256356  0.000000
  0.689875  0.173465  0.000000
  0.666295  0.284646  0.000000
  0.687610  0.126818  0.000000
  0.687786  0.070745  0.000000
  0.677714  0.243813  0.000000
  0.663759  0.273451  0.000000
  0.685980  0.310013  0.000000
  0.599971  0.249357  0.000000
  0.649883  0.179813  0.000000
  0.612401  0.259758  0.000000
  0.648462  0.237133  0.000000
  0.684612  0.188399  0.000000
  0.666604  0.217566  0.000000
  0.671097  0.185144  0.000000
  0.653501  0.178776  0.000000
  0.672616  0.089814  0.000000
  0.678636  0.172512  0.000000
  0.661053  0.179645  0.000000
  0.642858  0.121386  0.000000
  0.652841  0.077889  0.000000
  0.658831  0.052892  0.000000
  0.631917  0.065642  0.000000
  0.611743  0.042650  0.000000
  0.579260  0.042343  0.000000
  0.538017  0.034102  0.000000
  0.488017  0.050445  0.000000
  0.458940  0.053068  0.000000
  0.564187  0.428649  0.000000
  0.638440  0.398924  0.000000
  0.679688  0.238220  0.000000
  0.676270  0.459431  0.000000
  0.535802  0.427078  0.000000
  0.627431  0.293357  0.000000
  0.637839  0.410429  0.000000
  0.607361  0.471668  0.000000
  0.639066  0.385522  0.000000
  0.662657  0.354584  0.000000
  0.664594  0.366043  0.000000
  0.629703  0.253658  0.000000
  0.669410  0.238785  0.000000
  0.646883  0.286075  0.000000
  0.685042  0.226117  0.000000
  0.686713  0.267560  0.000000
  0.635875  0.173526  0.000000
  0.642463  0.197797  0.000000
  0.632920  0.170468  0.000000
  0.679922  0.061697  0.000000
  0.669319  0.135213  0.000000
  0.655668  0.089796  0.000000
  0.652170  0.098839  0.000000
  0.647063  0.049011  0.000000
  0.614633  0.048794  0.000000
  0.594061  0.048834  0.000000
  0.532267  0.041661  0.000000
  0.527128  0.050552  0.000000
  0.571115  0.408323  0.000000
  0.609034  0.452290  0.000000
  0.666416  0.429400  0.000000
  0.519285  0.417911  0.000000
  0.660869  0.384342  0.000000
  0.669559  0.415970  0.000000
  0.668650  0.369579  0.000000
  0.638086  0.273427  0.000000
  0.681290  0.329258  0.000000
  0.625484  0.279299  0.000000
  0.622553  0.253660  0.000000
  0.651753  0.265932  0.000000
  0.655237  0.236201  0.000000
  0.646590  0.228529  0.000000
  0.646516  0.195705  0.000000
  0.656316  0.137497  0.000000
  0.651959  0.119337  0.000000
  0.644066  0.121534  0.000000
  0.644269  0.073039  0.000000
  0.599086  0.051666  0.000000
  0.611094  0.055114  0.000000
  0.532688  0.050828  0.000000
 -0.010000  0.500000  0.000000
 -0.010000  0.490000  0.000000
 -0.010000  0.480000  0.000000
 -0.010000  0.470000  0.000000
 -0.010000  0.460000  0.000000
 -0.010000  0.450000  0.000000
 -0.010000  0.440000  0.000000
 -0.010000  0.430000  0.000000
 -0.010000  0.420000  0.000000
 -0.010000  0.410000  0.000000
 -0.010000  0.400000  0.000000
 -0.010000  0.390000  0.000000
 -0.010000  0.380000  0.000000
 -0.010000  0.370000  0.000000
 -0.010000  0.360000  0.000000
 -0.010000  0.350000  0.000000
 -0.010000  0.340000  0.000000
 -0.010000  0.330000  0.000000
 -0.010000  0.320000  0.000000
 -0.010000  0.310000  0.000000
 -0.010000  0.300000  0.000000
 -0.010000  0.290000  0.000000
 -0.010000  0.280000  0.000000
 -0.010000  0.270000  0.000000
 -0.010000  0.260000  0.000000
 -0.010000  0.250000  0.000000
 -0.010000  0.240000  0.000000
 -0.010000  0.230000  0.000000
 -0.010000  0.220000  0.000000
 -0.010000  0.210000  0.000000
 -0.010000  0.200000  0.000000
 -0.010000  0.190000  0.000000
 -0.010000  0.180000  0.000000
 -0.010000  0.170000  0.000000
 -0.010000  0.160000  0.000000
 -0.010000  0.150000  0.000000
 -0.010000  0.140000  0.000000
 -0.010000  0.130000  0.000000
 -0.010000  0.120000  0.000000
 -0.010000  0.110000  0.000000
 -0.010000  0.100000  0.000000
 -0.010000  0.090000  0.000000
 -0.010000  0.080000  0.000000
 -0.010000  0.070000  0.000000
 -0.010000  0.060000  0.000000
 -0.010000  0.050000  0.000000
 -0.010000  0.040000  0.000000
 -0.010000  0.030000  0.000000
 -0.010000  0.020000  0.000000
 -0.010000  0.010000  0.000000
 -0.100000 -0.010000  0.000000
 -0.090000 -0.010000  0.000000
 -0.080000 -0.010000  0.000000
 -0.070000 -0.010000  0.000000
 -0.060000 -0.010000  0.000000
 -0.050000 -0.010000  0.000000
 -0.040000 -0.010000  0.000000
 -0.030000 -0.010000  0.000000
 -0.020000 -0.010000  0.000000
 -0.010000 -0.010000  0.000000
 -0.000000 -0.010000  0.000000
  0.010000 -0.010000  0.000000
  0.020000 -0.010000  0.000000
  0.030000 -0.010000  0.000000
  0.040000 -0.010000  0.000000
  0.050000 -0.010000  0.000000
  0.060000 -0.010000  0.000000
  0.070000 -0.010000  0.000000
  0.080000 -0.010000  0.000000