<?xml version="1.0" encoding="UTF-8"?>
<VTKFile type="UnstructuredGrid" version="1.0" byte_order="LittleEndian">
<UnstructuredGrid>
  <Piece NumberOfPoints="1555" NumberOfCells="1555">
      <PointData>
        <DataArray type="Int32" Name="Type" format="ascii">
 1 1 1 1 1 1 1 1 1 1
 1 1 1 1 1 1 1 1 1 1
 1 1 1 1 1 1 1 1 1 1
 1 1 1 1 1 1 1 1 1 1
 1 1 1 1 1 1 1 1 1 1
 1 1 1 1 1 1 1 1 1 1
 1 3 3 3 3 3 3 3 3 3
 3 3 3 3 3 3 3 3 3 3
 3 3 3 3 3 3 3 3 3 3
 3 3 3 3 3 3 3 3 3 3
 3 3 3 3 3 3 3 3 3 3
 3 3 3 3 3 3 3 3 3 3
 3 3 3 3 3 3 3 3 3 3
 1 1 1 1 1 1 1 1 1 1
 1 1 1 1 1 1 1 1 1 1
 1 1 1 1 1 1 1 1 1 1
 1 1 1 1 1 1 1 1 1 1
 1 1 1 1 1 1 1 1 1 1
 1 1 1 1 1 1 1 1 1 1
 1 2 2 2 2 2 2 2 2 2
 2 2 2 2 2 2 2 2 2 2
 2 2 2 2 2 2 2 2 2 2
 2 2 2 2 2 2 2 2 2 2
 2 2 2 2 2 2 2 2 2 2
 2 2 2 2 2 2 2 2 2 2
 2 2 2 2 2 2 2 2 2 2
 2 2 2 2 2 2 2 2 2 2
 2 2 2 2 2 2 2 2 2 2
 2 2 2 2 2 2 2 2 2 2
 2 2 2 2 2 2 2 2 2 2
 2 2 2 2 2 2 2 2 2 2
 2 2 2 2 2 2 2 2 2 2
 2 2 2 2 2 2 2 2 2 2
 2 2 2 2 2 2 2 2 2 2
 2 2 2 2 2 2 2 2 2 2
 2 2 2 2 2 2 2 2 2 2
 2 2 2 2 2 2 2 2 2 2
 2 2 2 2 2 2 2 2 2 2
 2 2 2 2 2 2 2 2 2 2
 2 2 2 2 2 2 2 2 2 2
 2 2 2 2 2 2 2 2 2 2
 2 2 2 2 2 2 2 2 2 2
 2 2 2 2 2 2 2 2 2 2
 2 2 2 2 2 2 2 2 2 2
 2 2 2 2 2 2 2 2 2 2
 2 2 2 2 2 2 2 2 2 2
 2 2 2 2 2 2 2 2 2 2
 2 2 2 2 2 2 2 2 2 2
 2 2 2 2 2 2 2 2 2 2
 2 2 2 2 2 2 2 2 2 2
 2 2 2 2 2 2 2 2 2 2
 2 2 2 2 2 2 2 2 2 2
 2 2 2 2 2 2 2 2 2 2
 2 2 2 2 2 2 2 2 2 2
 2 2 2 2 2 2 2 2 2 2
 2 2 2 2 2 2 2 2 2 2
 2 2 2 2 2 2 2 2 2 2
 2 2 2 2 2 2 2 2 2 2
 2 2 2 2 2 2 2 2 2 2
 2 2 2 2 2 2 2 2 2 2
 2 2 2 2 2 2 2 2 2 2
 2 2 2 2 2 2 2 2 2 2
 2 2 2 2 2 2 2 2 2 2
 2 2 2 2 2 2 2 2 2 2
 2 2 2 2 2 2 2 2 2 2
 2 2 2 2 2 2 2 2 2 2
 2 2 2 2 2 2 2 2 2 2
 2 2 2 2 2 2 2 2 2 2
 2 2 2 2 2 2 2 2 2 2
 2 2 2 2 2 2 2 2 2 2
 2 2 2 2 2 2 2 2 2 2
 2 2 2 2 2 2 2 2 2 2
 2 2 2 2 2 2 2 2 2 2
 2 2 2 2 2 2 2 2 2 2
 2 2 2 2 2 2 2 2 2 2
 2 2 2 2 2 2 2 2 2 2
 2 2 2 2 2 2 2 2 2 2
 2 2 2 2 2 2 2 2 2 2
 2 2 2 2 2 2 2 2 2 2
 2 0 0 0 0 0 0 0 0 0
 0 0 0 0 0 0 0 0 0 0
 0 0 0 0 0 0 0 0 0 0
 0 0 0 0 0 0 0 0 0 0
 0 0 0 0 0 0 0 0 0 0
 0 0 0 0 0 0 0 0 0 0
 0 0 0 0 0 0 0 0 0 0
 0 0 0 0 0 0 0 0 0 0
 0 0 0 0 0 0 0 0 0 0
 0 0 0 0 0 0 0 0 0 0
 0 0 0 0 0 0 0 0 0 0
 0 0 0 0 0 0 0 0 0 0
 0 0 0 0 0 0 0 0 0 0
 0 0 0 0 0 0 0 0 0 0
 0 0 0 0 0 0 0 0 0 0
 0 0 0 0 0 0 0 0 0 0
 0 0 0 0 0 0 0 0 0 0
 0 0 0 0 0 0 0 0 0 0
 0 0 0 0 0 0 0 0 0 0
 0 0 0 0 0 0 0 0 0 0
 0 0 0 0 0 0 0 0 0 0
 0 0 0 0 0 0 0 0 0 0
 0 0 0 0 0 0 0 0 0 0
 0 0 0 0 0 0 0 0 0 0
 0 0 0 0 0 0 0 0 0 0
 0 0 0 0 0 0 0 0 0 0
 0 0 0 0 0 0 0 0 0 0
 0 0 0 0 0 0 0 0 0 0
 0 0 0 0 0 0 0 0 0 0
 0 0 0 0 0 0 0 0 0 0
 0 0 0 0 0 0 0 0 0 0
 0 0 0 0 0 0 0 0 0 0
 0 0 0 0 0 0 0 0 0 0
 0 0 0 0 0 0 0 0 0 0
 0 0 0 0 0 0 0 0 0 0
 0 0 0 0 0 0 0 0 0 0
 0 0 0 0 0 0 0 0 0 0
 0 0 0 0 0 0 0 0 0 0
 0 0 0 0 0 0 0 0 0 0
 0 0 0 0 0 0 0 0 0 0
 0 0 0 0 0 0 0 0 0 0
 0 0 0 0 0 0 0 0 0 0
 0 0 0 0 0 0 0 0 0 0
 0 0 0 0 0 0 0 0 0 0
 0 0 0 0 0 0 0 0 0 0
 0 0 0 0 0 0 0 0 0 0
 0 0 0 0 0 0 0 0 0 0
 0 0 0 0 0 0 0 0 0 0
 0 0 0 0 0 0 0 0 0 0
 0 0 0 0 0 0 0 0 0 0
 0 0 0 0 0 0 0 0 0 0
 0 0 0 0 0 0 0 0 0 0
 0 0 0 0 0 0 0 0 0 0
 0 0 0 0 0 0 0 0 0 0
 0 0 0 0 0 0 0 0 0 0
 0 0 0 0 0 0 0 0 0 0
 0 0 0 0 0 0 0 0 0 0
 0 0 0 0 0 0 0 0 0 0
 0 0 0 0 0 0 0 0 0 0
 0 0 0 0 0 0 0 0 0 0
 0 0 0 0 0 0 0 0 0 0
 0 0 0 0 0 0 0 0 0 0
 0 0 0 0 0 0 0 0 0 0
 0 0 0 0 0 0 0 0 0 0
 0 0 0 0 0 0 0 0 0 0
 0 0 0 0 0 0 0 0 0 0
 0 0 0 0 0 0 0 0 0 0
 0 0 0 0 0 0 0 0 0 0
 0 0 0 0 0 0 0 0 0 0
 0 0 0 0 0 0 0 0 0 0
 0 0 0 0 0 0 0 0 0 0
 0 0 0 0 0 0 0 0 0 0
 0 0 0 0 0 0 0 0 0 0
 0 0 0 0 0 0 0 0 0 0
 0 0 0 0 0 0 0 0 0 0
 0 0 0 0 0 0 0 0 0 0
 0 0 0 0 0
        </DataArray>
      </PointData>
      <Points>
        <DataArray type="Float32" NumberOfComponents="3" format="ascii">
  0.000000  0.500000  0.000000
  0.000000  0.490000  0.000000
  0.000000  0.480000  0.000000
  0.000000  0.470000  0.000000
  0.000000  0.460000  0.000000
  0.000000  0.450000  0.000000
  0.000000  0.440000  0.000000
  0.000000  0.430000  0.000000
  0.000000  0.420000  0.000000
  0.000000  0.410000  0.000000
  0.000000  0.400000  0.000000
  0.000000  0.390000  0.000000
  0.000000  0.380000  0.000000
  0.000000  0.370000  0.000000
  0.000000  0.360000  0.000000
  0.000000  0.350000  0.000000
  0.000000  0.340000  0.000000
  0.000000  0.330000  0.000000
  0.000000  0.320000  0.000000
  0.000000  0.310000  0.000000
  0.000000  0.300000  0.000000
  0.000000  0.290000  0.000000
  0.000000  0.280000  0.000000
  0.000000  0.270000  0.000000
  0.000000  0.260000  0.000000
  0.000000  0.250000  0.000000
  0.000000  0.240000  0.000000
  0.000000  0.230000  0.000000
  0.000000  0.220000  0.000000
  0.000000  0.210000  0.000000
  0.000000  0.200000  0.000000
  0.000000  0.190000  0.000000
  0.000000  0.180000  0.000000
  0.000000  0.170000  0.000000
  0.000000  0.160000  0.000000
  0.000000  0.150000  0.000000
  0.000000  0.140000  0.000000
  0.000000  0.130000  0.000000
  0.000000  0.120000  0.000000
  0.000000  0.110000  0.000000
  0.000000  0.100000  0.000000
  0.000000  0.090000  0.000000
  0.000000  0.080000  0.000000
  0.000000  0.070000  0.000000
  0.000000  0.060000  0.000000
  0.000000  0.050000  0.000000
  0.000000  0.040000  0.000000
  0.000000  0.030000  0.000000
  0.000000  0.020000  0.000000
  0.000000  0.010000  0.000000
 -0.100000  0.000000  0.000000
 -0.090000  0.000000  0.000000
 -0.080000  0.000000  0.000000
 -0.070000  0.000000  0.000000
 -0.060000  0.000000  0.000000
 -0.050000  0.000000  0.000000
 -0.040000  0.000000  0.000000
 -0.030000  0.000000  0.000000
 -0.020000  0.000000  0.000000
 -0.010000  0.000000  0.000000
 -0.000000  0.000000  0.000000
  0.010000  0.000000  0.000000
  0.020000  0.000000  0.000000
  0.030000  0.000000  0.000000
  0.040000  0.000000  0.000000
  0.050000  0.000000  0.000000
  0.060000  0.000000  0.000000
  0.070000  0.000000  0.000000
  0.080000  0.000000  0.000000
  0.090000  0.000000  0.000000
  0.100000  0.000000  0.000000
  0.110000  0.000000  0.000000
  0.120000  0.000000  0.000000
  0.130000  0.000000  0.000000
  0.140000  0.000000  0.000000
  0.150000  0.000000  0.000000
  0.160000  0.000000  0.000000
  0.170000  0.000000  0.000000
  0.180000  0.000000  0.000000
  0.190000  0.000000  0.000000
  0.200000  0.000000  0.000000
  0.210000  0.000000  0.000000
  0.220000  0.000000  0.000000
  0.230000  0.000000  0.000000
  0.240000  0.000000  0.000000
  0.250000  0.000000  0.000000
  0.260000  0.000000  0.000000
  0.270000  0.000000  0.000000
  0.280000  0.000000  0.000000
  0.290000  0.000000  0.000000
  0.300000  0.000000  0.000000
  0.310000  0.000000  0.000000
  0.320000  0.000000  0.000000
  0.330000  0.000000  0.000000
  0.340000  0.000000  0.000000
  0.350000  0.000000  0.000000
  0.360000  0.000000  0.000000
  0.370000  0.000000  0.000000
  0.380000  0.000000  0.000000
  0.390000  0.000000  0.000000
  0.400000  0.000000  0.000000
  0.410000  0.000000  0.000000
  0.420000  0.000000  0.000000
  0.430000  0.000000  0.000000
  0.440000  0.000000  0.000000
  0.450000  0.000000  0.000000
  0.460000  0.000000  0.000000
  0.470000  0.000000  0.000000
  0.480000  0.000000  0.000000
  0.490000  0.000000  0.000000
  0.500000  0.000000  0.000000
  0.510000  0.000000  0.000000
  0.520000  0.000000  0.000000
  0.530000  0.000000  0.000000
  0.540000  0.000000  0.000000
  0.550000  0.000000  0.000000
  0.560000  0.000000  0.000000
  0.570000  0.000000  0.000000
  0.580000  0.000000  0.000000
  0.590000  0.000000  0.000000
  0.600000  0.000000  0.000000
  0.610000  0.000000  0.000000
  0.620000  0.000000  0.000000
  0.630000  0.000000  0.000000
  0.640000  0.000000  0.000000
  0.650000  0.000000  0.000000
  0.660000  0.000000  0.000000
  0.670000  0.000000  0.000000
  0.680000  0.000000  0.000000
  0.690000  0.000000  0.000000
  0.700000  0.000000  0.000000
  0.710000  0.000000  0.000000
  0.720000  0.000000  0.000000
  0.730000  0.000000  0.000000
  0.740000  0.000000  0.000000
  0.750000  0.000000  0.000000
  0.760000  0.000000  0.000000
  0.770000  0.000000  0.000000
  0.780000  0.000000  0.000000
  0.790000  0.000000  0.000000
  0.800000  0.000000  0.000000
  0.700000  0.010000  0.000000
  0.700000  0.020000  0.000000
  0.700000  0.030000  0.000000
  0.700000  0.040000  0.000000
  0.700000  0.050000  0.000000
  0.700000  0.060000  0.000000
  0.700000  0.070000  0.000000
  0.700000  0.080000  0.000000
  0.700000  0.090000  0.000000
  0.700000  0.100000  0.000000
  0.700000  0.110000  0.000000
  0.700000  0.120000  0.000000
  0.700000  0.130000  0.000000
  0.700000  0.140000  0.000000
  0.700000  0.150000  0.000000
  0.700000  0.160000  0.000000
  0.700000  0.170000  0.000000
  0.700000  0.180000  0.000000
  0.700000  0.190000  0.000000
  0.700000  0.200000  0.000000
  0.700000  0.210000  0.000000
  0.700000  0.220000  0.000000
  0.700000  0.230000  0.000000
  0.700000  0.240000  0.000000
  0.700000  0.250000  0.000000
  0.700000  0.260000  0.000000
  0.700000  0.270000  0.000000
  0.700000  0.280000  0.000000
  0.700000  0.290000  0.000000
  0.700000  0.300000  0.000000
  0.700000  0.310000  0.000000
  0.700000  0.320000  0.000000
  0.700000  0.330000  0.000000
  0.700000  0.340000  0.000000
  0.700000  0.350000  0.000000
  0.700000  0.360000  0.000000
  0.700000  0.370000  0.000000
  0.700000  0.380000  0.000000
  0.700000  0.390000  0.000000
  0.700000  0.400000  0.000000
  0.700000  0.410000  0.000000
  0.700000  0.420000  0.000000
  0.700000  0.430000  0.000000
  0.700000  0.440000  0.000000
  0.700000  0.450000  0.000000
  0.700000  0.460000  0.000000
  0.700000  0.470000  0.000000
  0.700000  0.480000  0.000000
  0.700000  0.490000  0.000000
  0.700000  0.500000  0.000000
  0.009906  0.009836  0.000000
  0.009968  0.019886  0.000000
  0.009983  0.029865  0.000000
  0.009987  0.039854  0.000000
  0.009990  0.049840  0.000000
  0.009992  0.059827  0.000000
  0.009993  0.069814  0.000000
  0.009994  0.079802  0.000000
  0.009995  0.089790  0.000000
  0.009996  0.099780  0.000000
  0.009997  0.109771  0.000000
  0.009997  0.119763  0.000000
  0.009998  0.129756  0.000000
  0.009998  0.139749  0.000000
  0.009999  0.149744  0.000000
  0.009999  0.159739  0.000000
  0.009999  0.169735  0.000000
  0.009999  0.179731  0.000000
  0.009999  0.189728  0.000000
  0.010000  0.199725  0.000000
  0.010000  0.209723  0.000000
  0.010000  0.219721  0.000000
  0.010000  0.229719  0.000000
  0.010000  0.239718  0.000000
  0.010000  0.249717  0.000000
  0.010000  0.259716  0.000000
  0.010000  0.269715  0.000000
  0.009999  0.279715  0.000000
  0.009999  0.289713  0.000000
  0.009999  0.299711  0.000000
  0.019955  0.009888  0.000000
  0.019974  0.019909  0.000000
  0.019984  0.029870  0.000000
  0.019989  0.039858  0.000000
  0.019992  0.049843  0.000000
  0.019994  0.059828  0.000000
  0.019996  0.069815  0.000000
  0.019997  0.079803  0.000000
  0.019998  0.089791  0.000000
  0.019998  0.099781  0.000000
  0.019999  0.109772  0.000000
  0.019999  0.119763  0.000000
  0.019999  0.129756  0.000000
  0.020000  0.139750  0.000000
  0.020000  0.149744  0.000000
  0.020000  0.159739  0.000000
  0.020000  0.169735  0.000000
  0.020000  0.179731  0.000000
  0.020000  0.189728  0.000000
  0.020000  0.199725  0.000000
  0.020000  0.209723  0.000000
  0.020000  0.219721  0.000000
  0.020000  0.229719  0.000000
  0.020000  0.239718  0.000000
  0.020000  0.249717  0.000000
  0.020000  0.259716  0.000000
  0.020000  0.269715  0.000000
  0.019999  0.279715  0.000000
  0.019999  0.289714  0.000000
  0.019999  0.299713  0.000000
  0.029974  0.009898  0.000000
  0.029980  0.019919  0.000000
  0.029987  0.029877  0.000000
  0.029992  0.039862  0.000000
  0.029995  0.049845  0.000000
  0.029997  0.059830  0.000000
  0.029998  0.069816  0.000000
  0.029999  0.079803  0.000000
  0.030000  0.089792  0.000000
  0.030000  0.099781  0.000000
  0.030001  0.109772  0.000000
  0.030001  0.119764  0.000000
  0.030001  0.129756  0.000000
  0.030001  0.139750  0.000000
  0.030001  0.149744  0.000000
  0.030001  0.159739  0.000000
  0.030001  0.169735  0.000000
  0.030001  0.179731  0.000000
  0.030001  0.189728  0.000000
  0.030001  0.199725  0.000000
  0.030001  0.209723  0.000000
  0.030000  0.219721  0.000000
  0.030000  0.229719  0.000000
  0.030000  0.239718  0.000000
  0.030000  0.249716  0.000000
  0.030000  0.259716  0.000000
  0.030000  0.269715  0.000000
  0.030000  0.279714  0.000000
  0.030000  0.289714  0.000000
  0.030000  0.299714  0.000000
  0.039986  0.009901  0.000000
  0.039989  0.019924  0.000000
  0.039993  0.029881  0.000000
  0.039996  0.039865  0.000000
  0.039998  0.049848  0.000000
  0.040000  0.059832  0.000000
  0.040001  0.069817  0.000000
  0.040002  0.079804  0.000000
  0.040002  0.089792  0.000000
  0.040003  0.099782  0.000000
  0.040003  0.109772  0.000000
  0.040003  0.119764  0.000000
  0.040002  0.129756  0.000000
  0.040002  0.139750  0.000000
  0.040002  0.149744  0.000000
  0.040002  0.159739  0.000000
  0.040002  0.169735  0.000000
  0.040002  0.179731  0.000000
  0.040001  0.189728  0.000000
  0.040001  0.199725  0.000000
  0.040001  0.209722  0.000000
  0.040001  0.219720  0.000000
  0.040001  0.229719  0.000000
  0.040001  0.239717  0.000000
  0.040000  0.249716  0.000000
  0.040000  0.259715  0.000000
  0.040000  0.269715  0.000000
  0.040000  0.279714  0.000000
  0.040000  0.289714  0.000000
  0.040000  0.299714  0.000000
  0.049996  0.009902  0.000000
  0.049998  0.019926  0.000000
  0.050000  0.029884  0.000000
  0.050001  0.039868  0.000000
  0.050003  0.049849  0.000000
  0.050004  0.059833  0.000000
  0.050005  0.069818  0.000000
  0.050005  0.079804  0.000000
  0.050005  0.089792  0.000000
  0.050005  0.099782  0.000000
  0.050005  0.109772  0.000000
  0.050005  0.119763  0.000000
  0.050004  0.129756  0.000000
  0.050004  0.139749  0.000000
  0.050003  0.149744  0.000000
  0.050003  0.159739  0.000000
  0.050003  0.169734  0.000000
  0.050002  0.179731  0.000000
  0.050002  0.189727  0.000000
  0.050002  0.199725  0.000000
  0.050001  0.209722  0.000000
  0.050001  0.219720  0.000000
  0.050001  0.229719  0.000000
  0.050001  0.239717  0.000000
  0.050001  0.249716  0.000000
  0.050000  0.259715  0.000000
  0.050000  0.269715  0.000000
  0.050000  0.279714  0.000000
  0.050000  0.289714  0.000000
  0.050000  0.299714  0.000000
  0.060005  0.009903  0.000000
  0.060006  0.019928  0.000000
  0.060006  0.029886  0.000000
  0.060007  0.039869  0.000000
  0.060008  0.049850  0.000000
  0.060009  0.059833  0.000000
  0.060009  0.069818  0.000000
  0.060009  0.079804  0.000000
  0.060008  0.089792  0.000000
  0.060008  0.099781  0.000000
  0.060007  0.109772  0.000000
  0.060007  0.119763  0.000000
  0.060006  0.129755  0.000000
  0.060005  0.139749  0.000000
  0.060005  0.149743  0.000000
  0.060004  0.159738  0.000000
  0.060004  0.169734  0.000000
  0.060003  0.179730  0.000000
  0.060003  0.189727  0.000000
  0.060002  0.199724  0.000000
  0.060002  0.209722  0.000000
  0.060002  0.219720  0.000000
  0.060001  0.229718  0.000000
  0.060001  0.239717  0.000000
  0.060001  0.249716  0.000000
  0.060001  0.259715  0.000000
  0.060000  0.269714  0.000000
  0.060000  0.279714  0.000000
  0.060000  0.289714  0.000000
  0.060000  0.299714  0.000000
  0.070013  0.009903  0.000000
  0.070013  0.019928  0.000000
  0.070014  0.029886  0.000000
  0.070014  0.039870  0.000000
  0.070014  0.049851  0.000000
  0.070014  0.059833  0.000000
  0.070013  0.069818  0.000000
  0.070013  0.079804  0.000000
  0.070012  0.089791  0.000000
  0.070011  0.099780  0.000000
  0.070010  0.109771  0.000000
  0.070009  0.119762  0.000000
  0.070008  0.129755  0.000000
  0.070007  0.139748  0.000000
  0.070006  0.149742  0.000000
  0.070005  0.159737  0.000000
  0.070005  0.169733  0.000000
  0.070004  0.179730  0.000000
  0.070004  0.189726  0.000000
  0.070003  0.199724  0.000000
  0.070003  0.209722  0.000000
  0.070002  0.219720  0.000000
  0.070002  0.229718  0.000000
  0.070001  0.239717  0.000000
  0.070001  0.249716  0.000000
  0.070001  0.259715  0.000000
  0.070001  0.269714  0.000000
  0.070000  0.279714  0.000000
  0.070000  0.289714  0.000000
  0.070000  0.299714  0.000000
  0.080022  0.009903  0.000000
  0.080022  0.019928  0.000000
  0.080021  0.029886  0.000000
  0.080021  0.039869  0.000000
  0.080020  0.049850  0.000000
  0.080019  0.059833  0.000000
  0.080018  0.069817  0.000000
  0.080017  0.079803  0.000000
  0.080016  0.089790  0.000000
  0.080014  0.099779  0.000000
  0.080013  0.109770  0.000000
  0.080011  0.119761  0.000000
  0.080010  0.129754  0.000000
  0.080009  0.139747  0.000000
  0.080008  0.149741  0.000000
  0.080007  0.159737  0.000000
  0.080006  0.169732  0.000000
  0.080005  0.179729  0.000000
  0.080004  0.189726  0.000000
  0.080004  0.199723  0.000000
  0.080003  0.209721  0.000000
  0.080003  0.219719  0.000000
  0.080002  0.229718  0.000000
  0.080002  0.239716  0.000000
  0.080001  0.249715  0.000000
  0.080001  0.259715  0.000000
  0.080001  0.269714  0.000000
  0.080000  0.279714  0.000000
  0.080000  0.289713  0.000000
  0.080000  0.299713  0.000000
  0.090031  0.009903  0.000000
  0.090030  0.019928  0.000000
  0.090030  0.029886  0.000000
  0.090029  0.039868  0.000000
  0.090027  0.049849  0.000000
  0.090026  0.059831  0.000000
  0.090024  0.069815  0.000000
  0.090022  0.079801  0.000000
  0.090020  0.089789  0.000000
  0.090018  0.099778  0.000000
  0.090016  0.109768  0.000000
  0.090014  0.119759  0.000000
  0.090012  0.129752  0.000000
  0.090011  0.139746  0.000000
  0.090009  0.149740  0.000000
  0.090008  0.159736  0.000000
  0.090007  0.169731  0.000000
  0.090006  0.179728  0.000000
  0.090005  0.189725  0.000000
  0.090004  0.199723  0.000000
  0.090004  0.209720  0.000000
  0.090003  0.219719  0.000000
  0.090002  0.229717  0.000000
  0.090002  0.239716  0.000000
  0.090002  0.249715  0.000000
  0.090001  0.259714  0.000000
  0.090001  0.269714  0.000000
  0.090001  0.279713  0.000000
  0.090000  0.289713  0.000000
  0.090000  0.299713  0.000000
  0.100041  0.009902  0.000000
  0.100040  0.019928  0.000000
  0.100039  0.029885  0.000000
  0.100037  0.039867  0.000000
  0.100035  0.049847  0.000000
  0.100032  0.059829  0.000000
  0.100030  0.069813  0.000000
  0.100027  0.079799  0.000000
  0.100024  0.089786  0.000000
  0.100022  0.099775  0.000000
  0.100019  0.109766  0.000000
  0.100017  0.119757  0.000000
  0.100015  0.129750  0.000000
  0.100013  0.139744  0.000000
  0.100011  0.149739  0.000000
  0.100009  0.159734  0.000000
  0.100008  0.169730  0.000000
  0.100007  0.179727  0.000000
  0.100006  0.189724  0.000000
  0.100005  0.199722  0.000000
  0.100004  0.209720  0.000000
  0.100003  0.219718  0.000000
  0.100003  0.229717  0.000000
  0.100002  0.239716  0.000000
  0.100002  0.249715  0.000000
  0.100001  0.259714  0.000000
  0.100001  0.269713  0.000000
  0.100001  0.279713  0.000000
  0.100000  0.289713  0.000000
  0.100000  0.299713  0.000000
  0.110052  0.009902  0.000000
  0.110051  0.019927  0.000000
  0.110049  0.029883  0.000000
  0.110047  0.039864  0.000000
  0.110044  0.049844  0.000000
  0.110040  0.059826  0.000000
  0.110036  0.069810  0.000000
  0.110033  0.079796  0.000000
  0.110029  0.089783  0.000000
  0.110026  0.099772  0.000000
  0.110022  0.109763  0.000000
  0.110020  0.119755  0.000000
  0.110017  0.129748  0.000000
  0.110015  0.139742  0.000000
  0.110013  0.149737  0.000000
  0.110011  0.159733  0.000000
  0.110009  0.169729  0.000000
  0.110008  0.179726  0.000000
  0.110007  0.189723  0.000000
  0.110006  0.199721  0.000000
  0.110005  0.209719  0.000000
  0.110004  0.219717  0.000000
  0.110003  0.229716  0.000000
  0.110003  0.239715  0.000000
  0.110002  0.249714  0.000000
  0.110002  0.259713  0.000000
  0.110001  0.269713  0.000000
  0.110001  0.279713  0.000000
  0.110000  0.289712  0.000000
  0.110000  0.299712  0.000000
  0.120065  0.009901  0.000000
  0.120064  0.019925  0.000000
  0.120061  0.029880  0.000000
  0.120058  0.039861  0.000000
  0.120053  0.049840  0.000000
  0.120048  0.059822  0.000000
  0.120044  0.069805  0.000000
  0.120039  0.079791  0.000000
  0.120034  0.089779  0.000000
  0.120030  0.099769  0.000000
  0.120026  0.109760  0.000000
  0.120022  0.119752  0.000000
  0.120019  0.129745  0.000000
  0.120017  0.139740  0.000000
  0.120014  0.149735  0.000000
  0.120012  0.159731  0.000000
  0.120010  0.169727  0.000000
  0.120009  0.179724  0.000000
  0.120007  0.189722  0.000000
  0.120006  0.199720  0.000000
  0.120005  0.209718  0.000000
  0.120004  0.219717  0.000000
  0.120003  0.229715  0.000000
  0.120003  0.239714  0.000000
  0.120002  0.249714  0.000000
  0.120002  0.259713  0.000000
  0.120001  0.269713  0.000000
  0.120001  0.279712  0.000000
  0.120000  0.289712  0.000000
  0.120000  0.299712  0.000000
  0.130081  0.009900  0.000000
  0.130079  0.019923  0.000000
  0.130075  0.029876  0.000000
  0.130070  0.039856  0.000000
  0.130064  0.049835  0.000000
  0.130058  0.059816  0.000000
  0.130051  0.069800  0.000000
  0.130045  0.079786  0.000000
  0.130039  0.089774  0.000000
  0.130034  0.099764  0.000000
  0.130030  0.109756  0.000000
  0.130025  0.119748  0.000000
  0.130022  0.129742  0.000000
  0.130019  0.139737  0.000000
  0.130016  0.149733  0.000000
  0.130013  0.159729  0.000000
  0.130011  0.169726  0.000000
  0.130010  0.179723  0.000000
  0.130008  0.189721  0.000000
  0.130007  0.199719  0.000000
  0.130006  0.209717  0.000000
  0.130005  0.219716  0.000000
  0.130004  0.229715  0.000000
  0.130003  0.239714  0.000000
  0.130002  0.249713  0.000000
  0.130002  0.259712  0.000000
  0.130001  0.269712  0.000000
  0.130001  0.279712  0.000000
  0.130000  0.289712  0.000000
  0.130000  0.299712  0.000000
  0.140100  0.009898  0.000000
  0.140097  0.019920  0.000000
  0.140091  0.029871  0.000000
  0.140084  0.039849  0.000000
  0.140076  0.049827  0.000000
  0.140068  0.059809  0.000000
  0.140059  0.069793  0.000000
  0.140052  0.079779  0.000000
  0.140045  0.089768  0.000000
  0.140039  0.099759  0.000000
  0.140033  0.109751  0.000000
  0.140028  0.119744  0.000000
  0.140024  0.129739  0.000000
  0.140020  0.139734  0.000000
  0.140017  0.149730  0.000000
  0.140015  0.159726  0.000000
  0.140012  0.169724  0.000000
  0.140010  0.179721  0.000000
  0.140009  0.189719  0.000000
  0.140007  0.199717  0.000000
  0.140006  0.209716  0.000000
  0.140005  0.219715  0.000000
  0.140004  0.229714  0.000000
  0.140003  0.239713  0.000000
  0.140003  0.249712  0.000000
  0.140002  0.259712  0.000000
  0.140001  0.269712  0.000000
  0.140001  0.279711  0.000000
  0.140000  0.289711  0.000000
  0.140000  0.299711  0.000000
  0.150123  0.009896  0.000000
  0.150119  0.019915  0.000000
  0.150111  0.029863  0.000000
  0.150100  0.039840  0.000000
  0.150089  0.049818  0.000000
  0.150078  0.059799  0.000000
  0.150068  0.069784  0.000000
  0.150058  0.079771  0.000000
  0.150050  0.089761  0.000000
  0.150043  0.099752  0.000000
  0.150036  0.109745  0.000000
  0.150031  0.119739  0.000000
  0.150026  0.129734  0.000000
  0.150022  0.139730  0.000000
  0.150019  0.149727  0.000000
  0.150016  0.159724  0.000000
  0.150013  0.169721  0.000000
  0.150011  0.179719  0.000000
  0.150009  0.189718  0.000000
  0.150008  0.199716  0.000000
  0.150006  0.209715  0.000000
  0.150005  0.219714  0.000000
  0.150004  0.229713  0.000000
  0.150003  0.239712  0.000000
  0.150003  0.249712  0.000000
  0.150002  0.259711  0.000000
  0.150002  0.269711  0.000000
  0.150001  0.279711  0.000000
  0.150000  0.289711  0.000000
  0.150000  0.299711  0.000000
  0.160153  0.009892  0.000000
  0.160145  0.019907  0.000000
  0.160133  0.029851  0.000000
  0.160118  0.039827  0.000000
  0.160103  0.049805  0.000000
  0.160089  0.059787  0.000000
  0.160076  0.069773  0.000000
  0.160065  0.079762  0.000000
  0.160055  0.089753  0.000000
  0.160047  0.099745  0.000000
  0.160039  0.109739  0.000000
  0.160033  0.119734  0.000000
  0.160028  0.129730  0.000000
  0.160024  0.139726  0.000000
  0.160020  0.149723  0.000000
  0.160017  0.159721  0.000000
  0.160014  0.169719  0.000000
  0.160012  0.179717  0.000000
  0.160010  0.189716  0.000000
  0.160008  0.199715  0.000000
  0.160007  0.209714  0.000000
  0.160006  0.219713  0.000000
  0.160005  0.229712  0.000000
  0.160004  0.239712  0.000000
  0.160003  0.249711  0.000000
  0.160002  0.259711  0.000000
  0.160002  0.269710  0.000000
  0.160001  0.279710  0.000000
  0.160001  0.289710  0.000000
  0.160000  0.299710  0.000000
  0.170192  0.009886  0.000000
  0.170179  0.019894  0.000000
  0.170160  0.029834  0.000000
  0.170138  0.039809  0.000000
  0.170118  0.049788  0.000000
  0.170100  0.059772  0.000000
  0.170084  0.069760  0.000000
  0.170071  0.079750  0.000000
  0.170060  0.089743  0.000000
  0.170050  0.099737  0.000000
  0.170042  0.109732  0.000000
  0.170035  0.119728  0.000000
  0.170030  0.129725  0.000000
  0.170025  0.139722  0.000000
  0.170021  0.149720  0.000000
  0.170018  0.159718  0.000000
  0.170015  0.169716  0.000000
  0.170012  0.179715  0.000000
  0.170010  0.189714  0.000000
  0.170008  0.199713  0.000000
  0.170007  0.209712  0.000000
  0.170006  0.219712  0.000000
  0.170005  0.229711  0.000000
  0.170004  0.239711  0.000000
  0.170003  0.249710  0.000000
  0.170002  0.259710  0.000000
  0.170002  0.269710  0.000000
  0.170001  0.279710  0.000000
  0.170001  0.289710  0.000000
  0.170000  0.299710  0.000000
  0.180244  0.009873  0.000000
  0.180217  0.019872  0.000000
  0.180187  0.029808  0.000000
  0.180157  0.039784  0.000000
  0.180130  0.049766  0.000000
  0.180108  0.059753  0.000000
  0.180090  0.069744  0.000000
  0.180075  0.079737  0.000000
  0.180063  0.089732  0.000000
  0.180053  0.099728  0.000000
  0.180044  0.109724  0.000000
  0.180037  0.119722  0.000000
  0.180031  0.129719  0.000000
  0.180026  0.139718  0.000000
  0.180022  0.149716  0.000000
  0.180018  0.159715  0.000000
  0.180015  0.169714  0.000000
  0.180013  0.179713  0.000000
  0.180010  0.189712  0.000000
  0.180009  0.199711  0.000000
  0.180007  0.209711  0.000000
  0.180006  0.219710  0.000000
  0.180005  0.229710  0.000000
  0.180004  0.239710  0.000000
  0.180003  0.249710  0.000000
  0.180002  0.259709  0.000000
  0.180002  0.269709  0.000000
  0.180001  0.279709  0.000000
  0.180001  0.289709  0.000000
  0.180000  0.299709  0.000000
  0.190340  0.009859  0.000000
  0.190283  0.019821  0.000000
  0.190219  0.029769  0.000000
  0.190176  0.039751  0.000000
  0.190142  0.049740  0.000000
  0.190116  0.059732  0.000000
  0.190096  0.069727  0.000000
  0.190079  0.079723  0.000000
  0.190066  0.089720  0.000000
  0.190055  0.099718  0.000000
  0.190046  0.109716  0.000000
  0.190038  0.119715  0.000000
  0.190032  0.129714  0.000000
  0.190027  0.139713  0.000000
  0.190022  0.149712  0.000000
  0.190019  0.159711  0.000000
  0.190016  0.169711  0.000000
  0.190013  0.179710  0.000000
  0.190011  0.189710  0.000000
  0.190009  0.199710  0.000000
  0.190007  0.209709  0.000000
  0.190006  0.219709  0.000000
  0.190005  0.229709  0.000000
  0.190004  0.239709  0.000000
  0.190003  0.249709  0.000000
  0.190002  0.259709  0.000000
  0.190002  0.269709  0.000000
  0.190001  0.279709  0.000000
  0.190001  0.289709  0.000000
  0.190000  0.299709  0.000000
  0.200472  0.009947  0.000000
  0.200331  0.019779  0.000000
  0.200240  0.029736  0.000000
  0.200187  0.039727  0.000000
  0.200149  0.049722  0.000000
  0.200121  0.059718  0.000000
  0.200099  0.069716  0.000000
  0.200082  0.079715  0.000000
  0.200068  0.089713  0.000000
  0.200057  0.099712  0.000000
  0.200047  0.109712  0.000000
  0.200040  0.119711  0.000000
  0.200033  0.129710  0.000000
  0.200028  0.139710  0.000000
  0.200023  0.149710  0.000000
  0.200019  0.159709  0.000000
  0.200016  0.169709  0.000000
  0.200013  0.179709  0.000000
  0.200011  0.189709  0.000000
  0.200009  0.199709  0.000000
  0.200008  0.209709  0.000000
  0.200006  0.219709  0.000000
  0.200005  0.229708  0.000000
  0.200004  0.239708  0.000000
  0.200003  0.249708  0.000000
  0.200002  0.259708  0.000000
  0.200002  0.269708  0.000000
  0.200001  0.279708  0.000000
  0.200001  0.289708  0.000000
  0.200000  0.299708  0.000000
 -0.010000  0.500000  0.000000
 -0.010000  0.490000  0.000000
 -0.010000  0.480000  0.000000
 -0.010000  0.470000  0.000000
 -0.010000  0.460000  0.000000
 -0.010000  0.450000  0.000000
 -0.010000  0.440000  0.000000
 -0.010000  0.430000  0.000000
 -0.010000  0.420000  0.000000
 -0.010000  0.410000  0.000000
 -0.010000  0.400000  0.000000
 -0.010000  0.390000  0.000000
 -0.010000  0.380000  0.000000
 -0.010000  0.370000  0.000000
 -0.010000  0.360000  0.000000
 -0.010000  0.350000  0.000000
 -0.010000  0.340000  0.000000
 -0.010000  0.330000  0.000000
 -0.010000  0.320000  0.000000
 -0.010000  0.310000  0.000000
 -0.010000  0.300000  0.000000
 -0.010000  0.290000  0.000000
 -0.010000  0.280000  0.000000
 -0.010000  0.270000  0.000000
 -0.010000  0.260000  0.000000
 -0.010000  0.250000  0.000000
 -0.010000  0.240000  0.000000
 -0.010000  0.230000  0.000000
 -0.010000  0.220000  0.000000
 -0.010000  0.210000  0.000000
 -0.010000  0.200000  0.000000
 -0.010000  0.190000  0.000000
 -0.010000  0.180000  0.000000
 -0.010000  0.170000  0.000000
 -0.010000  0.160000  0.000000
 -0.010000  0.150000  0.000000
 -0.010000  0.140000  0.000000
 -0.010000  0.130000  0.000000
 -0.010000  0.120000  0.000000
 -0.010000  0.110000  0.000000
 -0.010000  0.100000  0.000000
 -0.010000  0.090000  0.000000
 -0.010000  0.080000  0.000000
 -0.010000  0.070000  0.000000
 -0.010000  0.060000  0.000000
 -0.010000  0.050000  0.000000
 -0.010000  0.040000  0.000000
 -0.010000  0.030000  0.000000
 -0.010000  0.020000  0.000000
 -0.010000  0.010000  0.000000
 -0.100000 -0.010000  0.000000
 -0.090000 -0.010000  0.000000
 -0.080000 -0.010000  0.000000
 -0.070000 -0.010000  0.000000
 -0.060000 -0.010000  0.000000
 -0.050000 -0.010000  0.000000
 -0.040000 -0.010000  0.000000
 -0.030000 -0.010000  0.000000