<?xml version="1.0" encoding="UTF-8"?>
<VTKFile type="UnstructuredGrid" version="1.0" byte_order="LittleEndian">
<UnstructuredGrid>
  <Piece NumberOfPoints="1554" NumberOfCells="1554">
      <PointData>
        <DataArray type="Int32" Name="Type" format="ascii">
 1 1 1 1 1 1 1 1 1 1
 1 1 1 1 1 1 1 1 1 1
 1 1 1 1 1 1 1 1 1 1
 1 1 1 1 1 1 1 1 1 1
 1 1 1 1 1 1 1 1 1 1
 1 1 1 1 1 1 1 1 1 1
 1 3 3 3 3 3 3 3 3 3
 3 3 3 3 3 3 3 3 3 3
 3 3 3 3 3 3 3 3 3 3
 3 3 3 3 3 3 3 3 3 3
 3 3 3 3 3 3 3 3 3 3
 3 3 3 3 3 3 3 3 3 3
 3 3 3 3 3 3 3 3 3 3
 1 1 1 1 1 1 1 1 1 1
 1 1 1 1 1 1 1 1 1 1
 1 1 1 1 1 1 1 1 1 1
 1 1 1 1 1 1 1 1 1 1
 1 1 1 1 1 1 1 1 1 1
 1 1 1 1 1 1 1 1 1 1
 1 2 2 2 2 2 2 2 2 2
 2 2 2 2 2 2 2 2 2 2
 2 2 2 2 2 2 2 2 2 2
 2 2 2 2 2 2 2 2 2 2
 2 2 2 2 2 2 2 2 2 2
 2 2 2 2 2 2 2 2 2 2
 2 2 2 2 2 2 2 2 2 2
 2 2 2 2 2 2 2 2 2 2
 2 2 2 2 2 2 2 2 2 2
 2 2 2 2 2 2 2 2 2 2
 2 2 2 2 2 2 2 2 2 2
 2 2 2 2 2 2 2 2 2 2
 2 2 2 2 2 2 2 2 2 2
 2 2 2 2 2 2 2 2 2 2
 2 2 2 2 2 2 2 2 2 2
 2 2 2 2 2 2 2 2 2 2
 2 2 2 2 2 2 2 2 2 2
 2 2 2 2 2 2 2 2 2 2
 2 2 2 2 2 2 2 2 2 2
 2 2 2 2 2 2 2 2 2 2
 2 2 2 2 2 2 2 2 2 2
 2 2 2 2 2 2 2 2 2 2
 2 2 2 2 2 2 2 2 2 2
 2 2 2 2 2 2 2 2 2 2
 2 2 2 2 2 2 2 2 2 2
 2 2 2 2 2 2 2 2 2 2
 2 2 2 2 2 2 2 2 2 2
 2 2 2 2 2 2 2 2 2 2
 2 2 2 2 2 2 2 2 2 2
 2 2 2 2 2 2 2 2 2 2
 2 2 2 2 2 2 2 2 2 2
 2 2 2 2 2 2 2 2 2 2
 2 2 2 2 2 2 2 2 2 2
 2 2 2 2 2 2 2 2 2 2
 2 2 2 2 2 2 2 2 2 2
 2 2 2 2 2 2 2 2 2 2
 2 2 2 2 2 2 2 2 2 2
 2 2 2 2 2 2 2 2 2 2
 2 2 2 2 2 2 2 2 2 2
 2 2 2 2 2 2 2 2 2 2
 2 2 2 2 2 2 2 2 2 2
 2 2 2 2 2 2 2 2 2 2
 2 2 2 2 2 2 2 2 2 2
 2 2 2 2 2 2 2 2 2 2
 2 2 2 2 2 2 2 2 2 2
 2 2 2 2 2 2 2 2 2 2
 2 2 2 2 2 2 2 2 2 2
 2 2 2 2 2 2 2 2 2 2
 2 2 2 2 2 2 2 2 2 2
 2 2 2 2 2 2 2 2 2 2
 2 2 2 2 2 2 2 2 2 2
 2 2 2 2 2 2 2 2 2 2
 2 2 2 2 2 2 2 2 2 2
 2 2 2 2 2 2 2 2 2 2
 2 2 2 2 2 2 2 2 2 2
 2 2 2 2 2 2 2 2 2 2
 2 2 2 2 2 2 2 2 2 2
 2 2 2 2 2 2 2 2 2 2
 2 2 2 2 2 2 2 2 2 2
 2 2 2 2 2 2 2 2 2 2
 0 0 0 0 0 0 0 0 0 0
 0 0 0 0 0 0 0 0 0 0
 0 0 0 0 0 0 0 0 0 0
 0 0 0 0 0 0 0 0 0 0
 0 0 0 0 0 0 0 0 0 0
 0 0 0 0 0 0 0 0 0 0
 0 0 0 0 0 0 0 0 0 0
 0 0 0 0 0 0 0 0 0 0
 0 0 0 0 0 0 0 0 0 0
 0 0 0 0 0 0 0 0 0 0
 0 0 0 0 0 0 0 0 0 0
 0 0 0 0 0 0 0 0 0 0
 0 0 0 0 0 0 0 0 0 0
 0 0 0 0 0 0 0 0 0 0
 0 0 0 0 0 0 0 0 0 0
 0 0 0 0 0 0 0 0 0 0
 0 0 0 0 0 0 0 0 0 0
 0 0 0 0 0 0 0 0 0 0
 0 0 0 0 0 0 0 0 0 0
 0 0 0 0 0 0 0 0 0 0
 0 0 0 0 0 0 0 0 0 0
 0 0 0 0 0 0 0 0 0 0
 0 0 0 0 0 0 0 0 0 0
 0 0 0 0 0 0 0 0 0 0
 0 0 0 0 0 0 0 0 0 0
 0 0 0 0 0 0 0 0 0 0
 0 0 0 0 0 0 0 0 0 0
 0 0 0 0 0 0 0 0 0 0
 0 0 0 0 0 0 0 0 0 0
 0 0 0 0 0 0 0 0 0 0
 0 0 0 0 0 0 0 0 0 0
 0 0 0 0 0 0 0 0 0 0
 0 0 0 0 0 0 0 0 0 0
 0 0 0 0 0 0 0 0 0 0
 0 0 0 0 0 0 0 0 0 0
 0 0 0 0 0 0 0 0 0 0
 0 0 0 0 0 0 0 0 0 0
 0 0 0 0 0 0 0 0 0 0
 0 0 0 0 0 0 0 0 0 0
 0 0 0 0 0 0 0 0 0 0
 0 0 0 0 0 0 0 0 0 0
 0 0 0 0 0 0 0 0 0 0
 0 0 0 0 0 0 0 0 0 0
 0 0 0 0 0 0 0 0 0 0
 0 0 0 0 0 0 0 0 0 0
 0 0 0 0 0 0 0 0 0 0
 0 0 0 0 0 0 0 0 0 0
 0 0 0 0 0 0 0 0 0 0
 0 0 0 0 0 0 0 0 0 0
 0 0 0 0 0 0 0 0 0 0
 0 0 0 0 0 0 0 0 0 0
 0 0 0 0 0 0 0 0 0 0
 0 0 0 0 0 0 0 0 0 0
 0 0 0 0 0 0 0 0 0 0
 0 0 0 0 0 0 0 0 0 0
 0 0 0 0 0 0 0 0 0 0
 0 0 0 0 0 0 0 0 0 0
 0 0 0 0 0 0 0 0 0 0
 0 0 0 0 0 0 0 0 0 0
 0 0 0 0 0 0 0 0 0 0
 0 0 0 0 0 0 0 0 0 0
 0 0 0 0 0 0 0 0 0 0
 0 0 0 0 0 0 0 0 0 0
 0 0 0 0 0 0 0 0 0 0
 0 0 0 0 0 0 0 0 0 0
 0 0 0 0 0 0 0 0 0 0
 0 0 0 0 0 0 0 0 0 0
 0 0 0 0 0 0 0 0 0 0
 0 0 0 0 0 0 0 0 0 0
 0 0 0 0 0 0 0 0 0 0
 0 0 0 0 0 0 0 0 0 0
 0 0 0 0 0 0 0 0 0 0
 0 0 0 0 0 0 0 0 0 0
 0 0 0 0 0 0 0 0 0 0
 0 0 0 0 0 0 0 0 0 0
 0 0 0 0 0 0 0 0 0 0
 0 0 0 0
        </DataArray>
      </PointData>
      <Points>
        <DataArray type="Float32" NumberOfComponents="3" format="ascii">
  0.000000  0.500000  0.000000
  0.000000  0.490000  0.000000
  0.000000  0.480000  0.000000
  0.000000  0.470000  0.000000
  0.000000  0.460000  0.000000
  0.000000  0.450000  0.000000
  0.000000  0.440000  0.000000
  0.000000  0.430000  0.000000
  0.000000  0.420000  0.000000
  0.000000  0.410000  0.000000
  0.000000  0.400000  0.000000
  0.000000  0.390000  0.000000
  0.000000  0.380000  0.000000
  0.000000  0.370000  0.000000
  0.000000  0.360000  0.000000
  0.000000  0.350000  0.000000
  0.000000  0.340000  0.000000
  0.000000  0.330000  0.000000
  0.000000  0.320000  0.000000
  0.000000  0.310000  0.000000
  0.000000  0.300000  0.000000
  0.000000  0.290000  0.000000
  0.000000  0.280000  0.000000
  0.000000  0.270000  0.000000
  0.000000  0.260000  0.000000
  0.000000  0.250000  0.000000
  0.000000  0.240000  0.000000
  0.000000  0.230000  0.000000
  0.000000  0.220000  0.000000
  0.000000  0.210000  0.000000
  0.000000  0.200000  0.000000
  0.000000  0.190000  0.000000
  0.000000  0.180000  0.000000
  0.000000  0.170000  0.000000
  0.000000  0.160000  0.000000
  0.000000  0.150000  0.000000
  0.000000  0.140000  0.000000
  0.000000  0.130000  0.000000
  0.000000  0.120000  0.000000
  0.000000  0.110000  0.000000
  0.000000  0.100000  0.000000
  0.000000  0.090000  0.000000
  0.000000  0.080000  0.000000
  0.000000  0.070000  0.000000
  0.000000  0.060000  0.000000
  0.000000  0.050000  0.000000
  0.000000  0.040000  0.000000
  0.000000  0.030000  0.000000
  0.000000  0.020000  0.000000
  0.000000  0.010000  0.000000
 -0.100000  0.000000  0.000000
 -0.090000  0.000000  0.000000
 -0.080000  0.000000  0.000000
 -0.070000  0.000000  0.000000
 -0.060000  0.000000  0.000000
 -0.050000  0.000000  0.000000
 -0.040000  0.000000  0.000000
 -0.030000  0.000000  0.000000
 -0.020000  0.000000  0.000000
 -0.010000  0.000000  0.000000
 -0.000000  0.000000  0.000000
  0.010000  0.000000  0.000000
  0.020000  0.000000  0.000000
  0.030000  0.000000  0.000000
  0.040000  0.000000  0.000000
  0.050000  0.000000  0.000000
  0.060000  0.000000  0.000000
  0.070000  0.000000  0.000000
  0.080000  0.000000  0.000000
  0.090000  0.000000  0.000000
  0.100000  0.000000  0.000000
  0.110000  0.000000  0.000000
  0.120000  0.000000  0.000000
  0.130000  0.000000  0.000000
  0.140000  0.000000  0.000000
  0.150000  0.000000  0.000000
  0.160000  0.000000  0.000000
  0.170000  0.000000  0.000000
  0.180000  0.000000  0.000000
  0.190000  0.000000  0.000000
  0.200000  0.000000  0.000000
  0.210000  0.000000  0.000000
  0.220000  0.000000  0.000000
  0.230000  0.000000  0.000000
  0.240000  0.000000  0.000000
  0.250000  0.000000  0.000000
  0.260000  0.000000  0.000000
  0.270000  0.000000  0.000000
  0.280000  0.000000  0.000000
  0.290000  0.000000  0.000000
  0.300000  0.000000  0.000000
  0.310000  0.000000  0.000000
  0.320000  0.000000  0.000000
  0.330000  0.000000  0.000000
  0.340000  0.000000  0.000000
  0.350000  0.000000  0.000000
  0.360000  0.000000  0.000000
  0.370000  0.000000  0.000000
  0.380000  0.000000  0.000000
  0.390000  0.000000  0.000000
  0.400000  0.000000  0.000000
  0.410000  0.000000  0.000000
  0.420000  0.000000  0.000000
  0.430000  0.000000  0.000000
  0.440000  0.000000  0.000000
  0.450000  0.000000  0.000000
  0.460000  0.000000  0.000000
  0.470000  0.000000  0.000000
  0.480000  0.000000  0.000000
  0.490000  0.000000  0.000000
  0.500000  0.000000  0.000000
  0.510000  0.000000  0.000000
  0.520000  0.000000  0.000000
  0.530000  0.000000  0.000000
  0.540000  0.000000  0.000000
  0.550000  0.000000  0.000000
  0.560000  0.000000  0.000000
  0.570000  0.000000  0.000000
  0.580000  0.000000  0.000000
  0.590000  0.000000  0.000000
  0.600000  0.000000  0.000000
  0.610000  0.000000  0.000000
  0.620000  0.000000  0.000000
  0.630000  0.000000  0.000000
  0.640000  0.000000  0.000000
  0.650000  0.000000  0.000000
  0.660000  0.000000  0.000000
  0.670000  0.000000  0.000000
  0.680000  0.000000  0.000000
  0.690000  0.000000  0.000000
  0.700000  0.000000  0.000000
  0.710000  0.000000  0.000000
  0.720000  0.000000  0.000000
  0.730000  0.000000  0.000000
  0.740000  0.000000  0.000000
  0.750000  0.000000  0.000000
  0.760000  0.000000  0.000000
  0.770000  0.000000  0.000000
  0.780000  0.000000  0.000000
  0.790000  0.000000  0.000000
  0.800000  0.000000  0.000000
  0.700000  0.010000  0.000000
  0.700000  0.020000  0.000000
  0.700000  0.030000  0.000000
  0.700000  0.040000  0.000000
  0.700000  0.050000  0.000000
  0.700000  0.060000  0.000000
  0.700000  0.070000  0.000000
  0.700000  0.080000  0.000000
  0.700000  0.090000  0.000000
  0.700000  0.100000  0.000000
  0.700000  0.110000  0.000000
  0.700000  0.120000  0.000000
  0.700000  0.130000  0.000000
  0.700000  0.140000  0.000000
  0.700000  0.150000  0.000000
  0.700000  0.160000  0.000000
  0.700000  0.170000  0.000000
  0.700000  0.180000  0.000000
  0.700000  0.190000  0.000000
  0.700000  0.200000  0.000000
  0.700000  0.210000  0.000000
  0.700000  0.220000  0.000000
  0.700000  0.230000  0.000000
  0.700000  0.240000  0.000000
  0.700000  0.250000  0.000000
  0.700000  0.260000  0.000000
  0.700000  0.270000  0.000000
  0.700000  0.280000  0.000000
  0.700000  0.290000  0.000000
  0.700000  0.300000  0.000000
  0.700000  0.310000  0.000000
  0.700000  0.320000  0.000000
  0.700000  0.330000  0.000000
  0.700000  0.340000  0.000000
  0.700000  0.350000  0.000000
  0.700000  0.360000  0.000000
  0.700000  0.370000  0.000000
  0.700000  0.380000  0.000000
  0.700000  0.390000  0.000000
  0.700000  0.400000  0.000000
  0.700000  0.410000  0.000000
  0.700000  0.420000  0.000000
  0.700000  0.430000  0.000000
  0.700000  0.440000  0.000000
  0.700000  0.450000  0.000000
  0.700000  0.460000  0.000000
  0.700000  0.470000  0.000000
  0.700000  0.480000  0.000000
  0.700000  0.490000  0.000000
  0.700000  0.500000  0.000000
  0.020942  0.010647  0.000000
  0.020761  0.020059  0.000000
  0.036993  0.014040  0.000000
  0.010410  0.009362  0.000000
  0.037464  0.023856  0.000000
  0.009803  0.018804  0.000000
  0.042306  0.029104  0.000000
  0.049330  0.015271  0.000000
  0.072725  0.026220  0.000000
  0.049564  0.032331  0.000000
  0.058655  0.034372  0.000000
  0.009604  0.029367  0.000000
  0.015753  0.040263  0.000000
  0.008634  0.042592  0.000000
  0.010449  0.055450  0.000000
  0.023969  0.051006  0.000000
  0.042925  0.057410  0.000000
  0.012369  0.058583  0.000000
  0.031723  0.072305  0.000000
  0.008136  0.071369  0.000000
  0.018122  0.068530  0.000000
  0.012573  0.080809  0.000000
  0.010326  0.087751  0.000000
  0.016343  0.099448  0.000000
  0.009180  0.098581  0.000000
  0.026331  0.101988  0.000000
  0.008519  0.112073  0.000000
  0.021074  0.113659  0.000000
  0.019306  0.109422  0.000000
  0.033193  0.115126  0.000000
  0.045474  0.008415  0.000000
  0.029886  0.009771  0.000000
  0.062054  0.008858  0.000000
  0.055710  0.019144  0.000000
  0.076945  0.011913  0.000000
  0.082423  0.018801  0.000000
  0.099013  0.011949  0.000000
  0.068395  0.011312  0.000000
  0.067172  0.037920  0.000000
  0.058682  0.024214  0.000000
  0.045329  0.045782  0.000000
  0.028663  0.024374  0.000000
  0.066329  0.044137  0.000000
  0.030730  0.035021  0.000000
  0.057364  0.052071  0.000000
  0.023760  0.040971  0.000000
  0.018145  0.029446  0.000000
  0.035390  0.049983  0.000000
  0.056094  0.058400  0.000000
  0.026070  0.056449  0.000000
  0.055665  0.070271  0.000000
  0.040766  0.062615  0.000000
  0.021686  0.075671  0.000000
  0.036990  0.078811  0.000000
  0.023645  0.088042  0.000000
  0.036140  0.095843  0.000000
  0.025913  0.088785  0.000000
  0.039607  0.090592  0.000000
  0.035433  0.105477  0.000000
  0.047662  0.105623  0.000000
  0.115767  0.012145  0.000000
  0.087261  0.007935  0.000000
  0.106007  0.009467  0.000000
  0.090870  0.018846  0.000000
  0.110384  0.020765  0.000000
  0.134586  0.013216  0.000000
  0.149920  0.018910  0.000000
  0.117689  0.033588  0.000000
  0.097250  0.042551  0.000000
  0.071555  0.025565  0.000000
  0.102376  0.029791  0.000000
  0.098087  0.022931  0.000000
  0.075985  0.047963  0.000000
  0.080671  0.068061  0.000000
  0.095476  0.058975  0.000000
  0.036818  0.040571  0.000000
  0.066069  0.055148  0.000000
  0.051140  0.042772  0.000000
  0.047173  0.068126  0.000000
  0.028146  0.065064  0.000000
  0.066836  0.065526  0.000000
  0.063497  0.077909  0.000000
  0.053336  0.077754  0.000000
  0.042105  0.080852  0.000000
  0.059520  0.088665  0.000000
  0.050301  0.090571  0.000000
  0.053739  0.097099  0.000000
  0.062259  0.107009  0.000000
  0.057795  0.106743  0.000000
  0.043946  0.111820  0.000000
  0.154882  0.008673  0.000000
  0.124594  0.008817  0.000000
  0.161406  0.013444  0.000000
  0.124907  0.018486  0.000000
  0.148455  0.038520  0.000000
  0.141615  0.008997  0.000000
  0.143837  0.031833  0.000000
  0.143638  0.020025  0.000000
  0.128351  0.039920  0.000000
  0.086369  0.030537  0.000000
  0.138870  0.037835  0.000000
  0.087433  0.036529  0.000000
  0.119047  0.042522  0.000000
  0.080438  0.038054  0.000000
  0.078600  0.055505  0.000000
  0.115918  0.025757  0.000000
  0.087202  0.049368  0.000000
  0.102592  0.046463  0.000000
  0.087846  0.057733  0.000000
  0.084065  0.072575  0.000000
  0.108410  0.065504  0.000000
  0.071400  0.068200  0.000000
  0.067637  0.084627  0.000000
  0.095146  0.073895  0.000000
  0.080219  0.082476  0.000000
  0.069938  0.096381  0.000000
  0.082970  0.097843  0.000000
  0.072265  0.097094  0.000000
  0.070144  0.112133  0.000000
  0.080828  0.109829  0.000000
  0.185307  0.009924  0.000000
  0.171857  0.008425  0.000000
  0.182635  0.014750  0.000000
  0.168744  0.017273  0.000000
  0.213655  0.012311  0.000000
  0.162837  0.027061  0.000000
  0.156181  0.027150  0.000000
  0.174972  0.025063  0.000000
  0.133844  0.024958  0.000000
  0.176723  0.035647  0.000000
  0.128263  0.029622  0.000000
  0.162060  0.035508  0.000000
  0.155182  0.044401  0.000000
  0.139554  0.050799  0.000000
  0.149776  0.064244  0.000000
  0.104306  0.035934  0.000000
  0.133734  0.048875  0.000000
  0.114141  0.047016  0.000000
  0.123641  0.069385  0.000000
  0.104946  0.054947  0.000000
  0.098071  0.068732  0.000000
  0.112056  0.062008  0.000000
  0.102008  0.080237  0.000000
  0.079277  0.083666  0.000000
  0.105068  0.085061  0.000000
  0.090743  0.092254  0.000000
  0.096307  0.088668  0.000000
  0.101142  0.104619  0.000000
  0.093023  0.100978  0.000000
  0.089411  0.110686  0.000000
  0.219591  0.011183  0.000000
  0.198777  0.009494  0.000000
  0.241921  0.021099  0.000000
  0.214801  0.023224  0.000000
  0.259961  0.010657  0.000000
  0.221027  0.032358  0.000000
  0.236985  0.014073  0.000000
  0.199444  0.014648  0.000000
  0.207007  0.020765  0.000000
  0.230332  0.027210  0.000000
  0.196856  0.029503  0.000000
  0.208647  0.032557  0.000000
  0.192355  0.022433  0.000000
  0.165378  0.044792  0.000000
  0.153860  0.052146  0.000000
  0.161935  0.054540  0.000000
  0.122407  0.054344  0.000000
  0.175246  0.053782  0.000000
  0.124679  0.058378  0.000000
  0.142185  0.057416  0.000000
  0.133925  0.065116  0.000000
  0.140216  0.069008  0.000000
  0.115729  0.075084  0.000000
  0.128748  0.076945  0.000000
  0.127118  0.088819  0.000000
  0.119186  0.080049  0.000000
  0.115581  0.092922  0.000000
  0.113909  0.094293  0.000000
  0.107005  0.098975  0.000000
  0.113694  0.110032  0.000000
  0.277601  0.010793  0.000000
  0.231782  0.010732  0.000000
  0.247945  0.011104  0.000000
  0.225624  0.019627  0.000000
  0.311185  0.024495  0.000000
  0.269065  0.013243  0.000000
  0.284658  0.014249  0.000000
  0.254730  0.015301  0.000000
  0.249086  0.025561  0.000000
  0.245224  0.033321  0.000000
  0.234243  0.033262  0.000000
  0.245370  0.043402  0.000000
  0.212360  0.038296  0.000000
  0.182207  0.025089  0.000000
  0.192307  0.034564  0.000000
  0.175279  0.039425  0.000000
  0.179317  0.050494  0.000000
  0.195228  0.051472  0.000000
  0.169886  0.061299  0.000000
  0.158254  0.064718  0.000000
  0.175071  0.068010  0.000000
  0.153569  0.074454  0.000000
  0.142392  0.077267  0.000000
  0.152685  0.083284  0.000000
  0.135611  0.086144  0.000000
  0.148837  0.088176  0.000000
  0.138156  0.101028  0.000000
  0.134055  0.091752  0.000000
  0.131818  0.108227  0.000000
  0.125865  0.105154  0.000000
  0.299779  0.017920  0.000000
  0.293388  0.010517  0.000000
  0.347049  0.028034  0.000000
  0.302491  0.011938  0.000000
  0.360670  0.023443  0.000000
  0.327378  0.012935  0.000000
  0.323936  0.026566  0.000000
  0.302533  0.027373  0.000000
  0.314050  0.012257  0.000000
  0.290241  0.025531  0.000000
  0.275691  0.020566  0.000000
  0.264414  0.024321  0.000000
  0.263743  0.028465  0.000000
  0.225005  0.041859  0.000000
  0.236267  0.052738  0.000000
  0.200419  0.040955  0.000000
  0.188034  0.042393  0.000000
  0.221784  0.050367  0.000000
  0.202164  0.050834  0.000000
  0.214041  0.047967  0.000000
  0.185954  0.064749  0.000000
  0.188694  0.056776  0.000000
  0.190585  0.070524  0.000000
  0.162734  0.073659  0.000000
  0.175349  0.074237  0.000000
  0.171552  0.082203  0.000000
  0.166699  0.085676  0.000000
  0.155675  0.093739  0.000000
  0.154805  0.102992  0.000000
  0.156070  0.100748  0.000000
  0.365018  0.009383  0.000000
  0.346747  0.012412  0.000000
  0.375790  0.013443  0.000000
  0.351223  0.014584  0.000000
  0.388542  0.022825  0.000000
  0.360269  0.017164  0.000000
  0.376626  0.031538  0.000000
  0.333001  0.018354  0.000000
  0.337417  0.010464  0.000000
  0.331732  0.031270  0.000000
  0.296506  0.036994  0.000000
  0.300728  0.037714  0.000000
  0.283949  0.045354  0.000000
  0.285147  0.027110  0.000000
  0.273410  0.034021  0.000000
  0.233971  0.042386  0.000000
  0.255262  0.034754  0.000000
  0.246231  0.051010  0.000000
  0.253917  0.058003  0.000000
  0.229457  0.058088  0.000000
  0.216892  0.060912  0.000000
  0.208533  0.057905  0.000000
  0.206743  0.068771  0.000000
  0.198958  0.064979  0.000000
  0.203652  0.074962  0.000000
  0.188535  0.080359  0.000000
  0.183768  0.085940  0.000000
  0.178894  0.093088  0.000000
  0.181546  0.097283  0.000000
  0.171113  0.097543  0.000000
  0.440738  0.011157  0.000000
  0.380976  0.013786  0.000000
  0.447893  0.013128  0.000000
  0.416354  0.017400  0.000000
  0.458822  0.028735  0.000000
  0.417019  0.009753  0.000000
  0.450667  0.022108  0.000000
  0.396481  0.029580  0.000000
  0.367373  0.033096  0.000000
  0.341265  0.024339  0.000000
  0.348001  0.035439  0.000000
  0.336767  0.040264  0.000000
  0.282073  0.035564  0.000000
  0.318498  0.011649  0.000000
  0.318331  0.027979  0.000000
  0.313601  0.036596  0.000000
  0.276132  0.050118  0.000000
  0.268966  0.040500  0.000000
  0.268061  0.054926  0.000000
  0.256258  0.043525  0.000000
  0.262990  0.047924  0.000000
  0.240094  0.062420  0.000000
  0.249350  0.063979  0.000000
  0.222010  0.065617  0.000000
  0.232630  0.080564  0.000000
  0.220954  0.078781  0.000000
  0.217066  0.078023  0.000000
  0.204332  0.084078  0.000000
  0.195836  0.083669  0.000000
  0.198548  0.096432  0.000000
  0.477553  0.016480  0.000000
  0.439167  0.027239  0.000000
  0.521564  0.010018  0.000000
  0.465448  0.010424  0.000000
  0.506923  0.010686  0.000000
  0.456072  0.014047  0.000000
  0.484603  0.010803  0.000000
  0.467531  0.015231  0.000000
  0.432137  0.025505  0.000000
  0.404921  0.015552  0.000000
  0.426255  0.013936  0.000000
  0.372056  0.022215  0.000000
  0.383007  0.030997  0.000000
  0.387109  0.047195  0.000000
  0.374897  0.048172  0.000000
  0.333806  0.040695  0.000000
  0.321543  0.044875  0.000000
  0.309391  0.044389  0.000000
  0.308001  0.052479  0.000000
  0.296166  0.052894  0.000000
  0.291973  0.066321  0.000000
  0.279477  0.061607  0.000000
  0.263408  0.062378  0.000000
  0.264292  0.079460  0.000000
  0.231060  0.068619  0.000000
  0.240109  0.073927  0.000000
  0.242433  0.089842  0.000000
  0.218672  0.092432  0.000000
  0.221043  0.090540  0.000000
  0.205485  0.092406  0.000000
  0.580406  0.014885  0.000000
  0.542293  0.009553  0.000000
  0.581917  0.017406  0.000000
  0.560127  0.012062  0.000000
  0.569980  0.011802  0.000000
  0.541899  0.014429  0.000000
  0.520095  0.013155  0.000000
  0.489152  0.013717  0.000000
  0.500386  0.011665  0.000000
  0.481090  0.029319  0.000000
  0.465416  0.029369  0.000000
  0.433910  0.012983  0.000000
  0.425252  0.026125  0.000000
  0.411682  0.032521  0.000000
  0.395639  0.018233  0.000000
  0.385046  0.041216  0.000000
  0.367986  0.047743  0.000000
  0.362107  0.035590  0.000000
  0.364611  0.052384  0.000000
  0.352533  0.049540  0.000000
  0.322904  0.049108  0.000000
  0.337262  0.056280  0.000000
  0.289154  0.047415  0.000000
  0.301919  0.055422  0.000000
  0.283647  0.061892  0.000000
  0.266484  0.069097  0.000000
  0.253703  0.091728  0.000000
  0.254565  0.071874  0.000000
  0.244961  0.077647  0.000000
  0.229848  0.088121  0.000000
  0.658687  0.010241  0.000000
  0.630472  0.029914  0.000000
  0.631342  0.017273  0.000000
  0.614753  0.010468  0.000000
  0.624254  0.021812  0.000000
  0.595202  0.014788  0.000000
  0.564479  0.026995  0.000000
  0.571273  0.020496  0.000000
  0.555412  0.011972  0.000000
  0.527371  0.023352  0.000000
  0.505299  0.020551  0.000000
  0.485794  0.023540  0.000000
  0.471422  0.025875  0.000000
  0.487204  0.041702  0.000000
  0.428891  0.037278  0.000000
  0.433226  0.049001  0.000000
  0.414545  0.026120  0.000000
  0.402415  0.011259  0.000000
  0.389279  0.009580  0.000000
  0.428202  0.044032  0.000000
  0.395128  0.036692  0.000000
  0.376854  0.062702  0.000000
  0.354309  0.038719  0.000000
  0.326076  0.055237  0.000000
  0.321500  0.064187  0.000000
  0.300489  0.068850  0.000000
  0.287130  0.074595  0.000000
  0.275338  0.071542  0.000000
  0.269002  0.083004  0.000000
  0.256089  0.085459  0.000000
  0.674866  0.028274  0.000000
  0.657132  0.026714  0.000000
  0.661843  0.015004  0.000000
  0.648394  0.013940  0.000000
  0.662526  0.078567  0.000000
  0.635019  0.012068  0.000000
  0.616140  0.028246  0.000000
  0.626664  0.034346  0.000000
  0.594286  0.033410  0.000000
  0.616556  0.035278  0.000000
  0.600979  0.024691  0.000000
  0.558182  0.030110  0.000000
  0.533341  0.023951  0.000000
  0.556565  0.045912  0.000000
  0.518056  0.022488  0.000000
  0.502462  0.024544  0.000000
  0.504705  0.049795  0.000000
  0.459542  0.041705  0.000000
  0.472231  0.040637  0.000000
  0.446327  0.030662  0.000000
  0.417810  0.040215  0.000000
  0.403760  0.034953  0.000000
  0.403745  0.053404  0.000000
  0.365401  0.069407  0.000000
  0.353143  0.057691  0.000000
  0.340908  0.068194  0.000000
  0.312901  0.062606  0.000000
  0.305465  0.080401  0.000000
  0.290377  0.080508  0.000000
  0.278263  0.082845  0.000000
  0.684228  0.027176  0.000000
  0.690877  0.076029  0.000000
  0.675495  0.050928  0.000000
  0.685243  0.042136  0.000000
  0.678744  0.071850  0.000000
  0.673100  0.015173  0.000000
  0.643990  0.013222  0.000000
  0.649647  0.057698  0.000000
  0.632442  0.043969  0.000000
  0.644173  0.027117  0.000000
  0.639774  0.044412  0.000000
  0.606230  0.013736  0.000000
  0.622550  0.010669  0.000000
  0.608732  0.022268  0.000000
  0.547230  0.020889  0.000000
  0.572306  0.038011  0.000000
  0.546542  0.033535  0.000000
  0.516029  0.032245  0.000000
  0.515633  0.041810  0.000000
  0.495774  0.030933  0.000000
  0.487142  0.036711  0.000000
  0.452342  0.037759  0.000000
  0.427932  0.064364  0.000000
  0.411798  0.045197  0.000000
  0.386408  0.053710  0.000000
  0.393473  0.061831  0.000000
  0.345116  0.050650  0.000000
  0.338840  0.061688  0.000000
  0.316868  0.071696  0.000000
  0.302097  0.075494  0.000000
  0.688671  0.039991  0.000000
  0.688097  0.013119  0.000000
  0.687261  0.086919  0.000000
  0.686905  0.155141  0.000000
  0.685562  0.012639  0.000000
  0.672733  0.010998  0.000000
  0.670299  0.087568  0.000000
  0.678008  0.088634  0.000000
  0.664759  0.026492  0.000000
  0.675409  0.034527  0.000000
  0.674494  0.063981  0.000000
  0.665330  0.036265  0.000000
  0.656868  0.045059  0.000000
  0.660092  0.064946  0.000000
  0.642579  0.065410  0.000000
  0.619603  0.049428  0.000000
  0.608558  0.042088  0.000000
  0.595705  0.009392  0.000000
  0.577799  0.030880  0.000000
  0.548778  0.045387  0.000000
  0.545804  0.030116  0.000000
  0.504007  0.035448  0.000000
  0.480736  0.052304  0.000000
  0.483906  0.064497  0.000000
  0.446278  0.046077  0.000000
  0.422765  0.061334  0.000000
  0.402588  0.048927  0.000000
  0.374767  0.071517  0.000000
  0.355836  0.068251  0.000000
  0.323201  0.072668  0.000000
  0.680354  0.148005  0.000000
  0.655853  0.199527  0.000000
  0.688986  0.060820  0.000000
  0.677118  0.114450  0.000000
  0.623403  0.237458  0.000000
  0.688637  0.100215  0.000000
  0.689200  0.120806  0.000000
  0.675188  0.139605  0.000000
  0.689915  0.190454  0.000000
  0.672687  0.118758  0.000000
  0.671488  0.048376  0.000000
  0.685120  0.062371  0.000000
  0.664487  0.088550  0.000000
  0.654880  0.088643  0.000000
  0.664515  0.052352  0.000000
  0.671268  0.074079  0.000000
  0.653321  0.050942  0.000000
  0.641245  0.038416  0.000000
  0.626139  0.057123  0.000000
  0.603717  0.035259  0.000000
  0.577840  0.050067  0.000000
  0.560447  0.038232  0.000000
  0.532688  0.032302  0.000000
  0.533744  0.049224  0.000000
  0.473998  0.048766  0.000000
  0.460551  0.059884  0.000000
  0.437739  0.044589  0.000000
  0.421525  0.062313  0.000000
  0.377893  0.064107  0.000000
  0.344771  0.072624  0.000000
  0.687265  0.114570  0.000000
  0.614112  0.300792  0.000000
  0.684888  0.175580  0.000000
  0.683443  0.081115  0.000000
  0.683980  0.175280  0.000000
  0.686924  0.050913  0.000000
  0.690011  0.025074  0.000000
  0.686732  0.150306  0.000000
  0.665729  0.174421  0.000000
  0.689388  0.204704  0.000000
  0.649945  0.170975  0.000000
  0.667352  0.106881  0.000000
  0.654061  0.152961  0.000000
  0.664528  0.155523  0.000000
  0.685825  0.101944  0.000000
  0.668167  0.123522  0.000000
  0.666679  0.105147  0.000000
  0.658338  0.099802  0.000000
  0.654711  0.037746  0.000000
  0.652322  0.083364  0.000000
  0.642102  0.072922  0.000000
  0.629078  0.059292  0.000000
  0.586590  0.045968  0.000000
  0.588818  0.026221  0.000000
  0.544053  0.049068  0.000000
  0.526449  0.037999  0.000000
  0.495204  0.050739  0.000000
  0.459478  0.047988  0.000000
  0.411772  0.058275  0.000000
  0.394243  0.062595  0.000000
  0.612679  0.295313  0.000000
  0.666402  0.262379  0.000000
  0.687559  0.139739  0.000000
  0.585272  0.408576  0.000000
  0.676782  0.345315  0.000000
  0.596651  0.310526  0.000000
  0.660282  0.358311  0.000000
  0.659811  0.204664  0.000000
  0.662982  0.270474  0.000000
  0.649127  0.311483  0.000000
  0.656841  0.245538  0.000000
  0.677080  0.222629  0.000000
  0.680381  0.239584  0.000000
  0.646335  0.191281  0.000000
  0.668239  0.133854  0.000000
  0.672468  0.186814  0.000000
  0.683826  0.130951  0.000000
  0.683092  0.184610  0.000000
  0.652016  0.124131  0.000000
  0.648455  0.126531  0.000000
  0.644565  0.086980  0.000000
  0.647417  0.027932  0.000000
  0.662595  0.063389  0.000000
  0.590994  0.050560  0.000000
  0.596938  0.043156  0.000000
  0.582438  0.036903  0.000000
  0.534761  0.044339  0.000000
  0.502225  0.043308  0.000000
  0.453301  0.060273  0.000000
  0.444581  0.062180  0.000000
  0.536699  0.441001  0.000000
  0.625238  0.278888  0.000000
  0.507937  0.411975  0.000000
  0.482546  0.476850  0.000000
  0.574865  0.455419  0.000000
  0.637274  0.319843  0.000000
  0.661259  0.348331  0.000000
  0.673915  0.399567  0.000000
  0.672316  0.309714  0.000000
  0.645883  0.434982  0.000000
  0.604728  0.293709  0.000000
  0.663627  0.277458  0.000000
  0.677810  0.291801  0.000000
  0.677787  0.258416  0.000000
  0.652941  0.204847  0.000000
  0.690508  0.231215  0.000000
  0.646857  0.177975  0.000000
  0.644889  0.159941  0.000000
  0.662342  0.159479  0.000000
  0.667095  0.137527  0.000000
  0.654924  0.128659  0.000000
  0.656350  0.103775  0.000000
  0.646505  0.069381  0.000000
  0.636717  0.053999  0.000000
  0.616792  0.051028  0.000000
  0.565608  0.047386  0.000000
  0.515627  0.054873  0.000000
  0.523175  0.050699  0.000000
  0.464460  0.057179  0.000000
 -0.010000  0.500000  0.000000
 -0.010000  0.490000  0.000000
 -0.010000  0.480000  0.000000
 -0.010000  0.470000  0.000000
 -0.010000  0.460000  0.000000
 -0.010000  0.450000  0.000000
 -0.010000  0.440000  0.000000
 -0.010000  0.430000  0.000000
 -0.010000  0.420000  0.000000
 -0.010000  0.410000  0.000000
 -0.010000  0.400000  0.000000
 -0.010000  0.390000  0.000000
 -0.010000  0.380000  0.000000
 -0.010000  0.370000  0.000000
 -0.010000  0.360000  0.000000
 -0.010000  0.350000  0.000000
 -0.010000  0.340000  0.000000
 -0.010000  0.330000  0.000000
 -0.010000  0.320000  0.000000
 -0.010000  0.310000  0.000000
 -0.010000  0.300000  0.000000
 -0.010000  0.290000  0.000000
 -0.010000  0.280000  0.000000
 -0.010000  0.270000  0.000000
 -0.010000  0.260000  0.000000
 -0.010000  0.250000  0.000000
 -0.010000  0.240000  0.000000
 -0.010000  0.230000  0.000000
 -0.010000  0.220000  0.000000
 -0.010000  0.210000  0.000000
 -0.010000  0.200000  0.000000
 -0.010000  0.190000  0.000000
 -0.010000  0.180000  0.000000
 -0.010000  0.170000  0.000000
 -0.010000  0.160000  0.000000
 -0.010000  0.150000  0.000000
 -0.010000  0.140000  0.000000
 -0.010000  0.130000  0.000000
 -0.010000  0.120000  0.000000
 -0.010000  0.110000  0.000000
 -0.010000  0.100000  0.000000
 -0.010000  0.090000  0.000000
 -0.010000  0.080000  0.000000
 -0.010000  0.070000  0.000000
 -0.010000  0.060000  0.000000
 -0.010000  0.050000  0.000000
 -0.010000  0.040000  0.000000
 -0.010000  0.030000  0.000000
 -0.010000  0.020000  0.000000
 -0.010000  0.010000  0.000000
 -0.100000 -0.010000  0.000000
 -0.090000 -0.010000  0.000000
 -0.080000 -0.010000  0.000000
 -0.070000 -0.010000  0.000000
 -0.060000 -0.010000  0.000000
 -0.050000 -0.010000  0.000000
 -0.040000 -0.010000  0.000000
 -0.030000 -0.010000  0.000000
 -0.020000 -0.010000  0.000000