<?xml version="1.0" encoding="UTF-8"?>
<VTKFile type="UnstructuredGrid" version="1.0" byte_order="LittleEndian">
<UnstructuredGrid>
  <Piece NumberOfPoints="1554" NumberOfCells="1554">
      <PointData>
        <DataArray type="Int32" Name="Type" format="ascii">
 1 1 1 1 1 1 1 1 1 1
 1 1 1 1 1 1 1 1 1 1
 1 1 1 1 1 1 1 1 1 1
 1 1 1 1 1 1 1 1 1 1
 1 1 1 1 1 1 1 1 1 1
 1 1 1 1 1 1 1 1 1 1
 1 3 3 3 3 3 3 3 3 3
 3 3 3 3 3 3 3 3 3 3
 3 3 3 3 3 3 3 3 3 3
 3 3 3 3 3 3 3 3 3 3
 3 3 3 3 3 3 3 3 3 3
 3 3 3 3 3 3 3 3 3 3
 3 3 3 3 3 3 3 3 3 3
 1 1 1 1 1 1 1 1 1 1
 1 1 1 1 1 1 1 1 1 1
 1 1 1 1 1 1 1 1 1 1
 1 1 1 1 1 1 1 1 1 1
 1 1 1 1 1 1 1 1 1 1
 1 1 1 1 1 1 1 1 1 1
 1 2 2 2 2 2 2 2 2 2
 2 2 2 2 2 2 2 2 2 2
 2 2 2 2 2 2 2 2 2 2
 2 2 2 2 2 2 2 2 2 2
 2 2 2 2 2 2 2 2 2 2
 2 2 2 2 2 2 2 2 2 2
 2 2 2 2 2 2 2 2 2 2
 2 2 2 2 2 2 2 2 2 2
 2 2 2 2 2 2 2 2 2 2
 2 2 2 2 2 2 2 2 2 2
 2 2 2 2 2 2 2 2 2 2
 2 2 2 2 2 2 2 2 2 2
 2 2 2 2 2 2 2 2 2 2
 2 2 2 2 2 2 2 2 2 2
 2 2 2 2 2 2 2 2 2 2
 2 2 2 2 2 2 2 2 2 2
 2 2 2 2 2 2 2 2 2 2
 2 2 2 2 2 2 2 2 2 2
 2 2 2 2 2 2 2 2 2 2
 2 2 2 2 2 2 2 2 2 2
 2 2 2 2 2 2 2 2 2 2
 2 2 2 2 2 2 2 2 2 2
 2 2 2 2 2 2 2 2 2 2
 2 2 2 2 2 2 2 2 2 2
 2 2 2 2 2 2 2 2 2 2
 2 2 2 2 2 2 2 2 2 2
 2 2 2 2 2 2 2 2 2 2
 2 2 2 2 2 2 2 2 2 2
 2 2 2 2 2 2 2 2 2 2
 2 2 2 2 2 2 2 2 2 2
 2 2 2 2 2 2 2 2 2 2
 2 2 2 2 2 2 2 2 2 2
 2 2 2 2 2 2 2 2 2 2
 2 2 2 2 2 2 2 2 2 2
 2 2 2 2 2 2 2 2 2 2
 2 2 2 2 2 2 2 2 2 2
 2 2 2 2 2 2 2 2 2 2
 2 2 2 2 2 2 2 2 2 2
 2 2 2 2 2 2 2 2 2 2
 2 2 2 2 2 2 2 2 2 2
 2 2 2 2 2 2 2 2 2 2
 2 2 2 2 2 2 2 2 2 2
 2 2 2 2 2 2 2 2 2 2
 2 2 2 2 2 2 2 2 2 2
 2 2 2 2 2 2 2 2 2 2
 2 2 2 2 2 2 2 2 2 2
 2 2 2 2 2 2 2 2 2 2
 2 2 2 2 2 2 2 2 2 2
 2 2 2 2 2 2 2 2 2 2
 2 2 2 2 2 2 2 2 2 2
 2 2 2 2 2 2 2 2 2 2
 2 2 2 2 2 2 2 2 2 2
 2 2 2 2 2 2 2 2 2 2
 2 2 2 2 2 2 2 2 2 2
 2 2 2 2 2 2 2 2 2 2
 2 2 2 2 2 2 2 2 2 2
 2 2 2 2 2 2 2 2 2 2
 2 2 2 2 2 2 2 2 2 2
 2 2 2 2 2 2 2 2 2 2
 2 2 2 2 2 2 2 2 2 2
 0 0 0 0 0 0 0 0 0 0
 0 0 0 0 0 0 0 0 0 0
 0 0 0 0 0 0 0 0 0 0
 0 0 0 0 0 0 0 0 0 0
 0 0 0 0 0 0 0 0 0 0
 0 0 0 0 0 0 0 0 0 0
 0 0 0 0 0 0 0 0 0 0
 0 0 0 0 0 0 0 0 0 0
 0 0 0 0 0 0 0 0 0 0
 0 0 0 0 0 0 0 0 0 0
 0 0 0 0 0 0 0 0 0 0
 0 0 0 0 0 0 0 0 0 0
 0 0 0 0 0 0 0 0 0 0
 0 0 0 0 0 0 0 0 0 0
 0 0 0 0 0 0 0 0 0 0
 0 0 0 0 0 0 0 0 0 0
 0 0 0 0 0 0 0 0 0 0
 0 0 0 0 0 0 0 0 0 0
 0 0 0 0 0 0 0 0 0 0
 0 0 0 0 0 0 0 0 0 0
 0 0 0 0 0 0 0 0 0 0
 0 0 0 0 0 0 0 0 0 0
 0 0 0 0 0 0 0 0 0 0
 0 0 0 0 0 0 0 0 0 0
 0 0 0 0 0 0 0 0 0 0
 0 0 0 0 0 0 0 0 0 0
 0 0 0 0 0 0 0 0 0 0
 0 0 0 0 0 0 0 0 0 0
 0 0 0 0 0 0 0 0 0 0
 0 0 0 0 0 0 0 0 0 0
 0 0 0 0 0 0 0 0 0 0
 0 0 0 0 0 0 0 0 0 0
 0 0 0 0 0 0 0 0 0 0
 0 0 0 0 0 0 0 0 0 0
 0 0 0 0 0 0 0 0 0 0
 0 0 0 0 0 0 0 0 0 0
 0 0 0 0 0 0 0 0 0 0
 0 0 0 0 0 0 0 0 0 0
 0 0 0 0 0 0 0 0 0 0
 0 0 0 0 0 0 0 0 0 0
 0 0 0 0 0 0 0 0 0 0
 0 0 0 0 0 0 0 0 0 0
 0 0 0 0 0 0 0 0 0 0
 0 0 0 0 0 0 0 0 0 0
 0 0 0 0 0 0 0 0 0 0
 0 0 0 0 0 0 0 0 0 0
 0 0 0 0 0 0 0 0 0 0
 0 0 0 0 0 0 0 0 0 0
 0 0 0 0 0 0 0 0 0 0
 0 0 0 0 0 0 0 0 0 0
 0 0 0 0 0 0 0 0 0 0
 0 0 0 0 0 0 0 0 0 0
 0 0 0 0 0 0 0 0 0 0
 0 0 0 0 0 0 0 0 0 0
 0 0 0 0 0 0 0 0 0 0
 0 0 0 0 0 0 0 0 0 0
 0 0 0 0 0 0 0 0 0 0
 0 0 0 0 0 0 0 0 0 0
 0 0 0 0 0 0 0 0 0 0
 0 0 0 0 0 0 0 0 0 0
 0 0 0 0 0 0 0 0 0 0
 0 0 0 0 0 0 0 0 0 0
 0 0 0 0 0 0 0 0 0 0
 0 0 0 0 0 0 0 0 0 0
 0 0 0 0 0 0 0 0 0 0
 0 0 0 0 0 0 0 0 0 0
 0 0 0 0 0 0 0 0 0 0
 0 0 0 0 0 0 0 0 0 0
 0 0 0 0 0 0 0 0 0 0
 0 0 0 0 0 0 0 0 0 0
 0 0 0 0 0 0 0 0 0 0
 0 0 0 0 0 0 0 0 0 0
 0 0 0 0 0 0 0 0 0 0
 0 0 0 0 0 0 0 0 0 0
 0 0 0 0 0 0 0 0 0 0
 0 0 0 0 0 0 0 0 0 0
 0 0 0 0
        </DataArray>
      </PointData>
      <Points>
        <DataArray type="Float32" NumberOfComponents="3" format="ascii">
  0.000000  0.500000  0.000000
  0.000000  0.490000  0.000000
  0.000000  0.480000  0.000000
  0.000000  0.470000  0.000000
  0.000000  0.460000  0.000000
  0.000000  0.450000  0.000000
  0.000000  0.440000  0.000000
  0.000000  0.430000  0.000000
  0.000000  0.420000  0.000000
  0.000000  0.410000  0.000000
  0.000000  0.400000  0.000000
  0.000000  0.390000  0.000000
  0.000000  0.380000  0.000000
  0.000000  0.370000  0.000000
  0.000000  0.360000  0.000000
  0.000000  0.350000  0.000000
  0.000000  0.340000  0.000000
  0.000000  0.330000  0.000000
  0.000000  0.320000  0.000000
  0.000000  0.310000  0.000000
  0.000000  0.300000  0.000000
  0.000000  0.290000  0.000000
  0.000000  0.280000  0.000000
  0.000000  0.270000  0.000000
  0.000000  0.260000  0.000000
  0.000000  0.250000  0.000000
  0.000000  0.240000  0.000000
  0.000000  0.230000  0.000000
  0.000000  0.220000  0.000000
  0.000000  0.210000  0.000000
  0.000000  0.200000  0.000000
  0.000000  0.190000  0.000000
  0.000000  0.180000  0.000000
  0.000000  0.170000  0.000000
  0.000000  0.160000  0.000000
  0.000000  0.150000  0.000000
  0.000000  0.140000  0.000000
  0.000000  0.130000  0.000000
  0.000000  0.120000  0.000000
  0.000000  0.110000  0.000000
  0.000000  0.100000  0.000000
  0.000000  0.090000  0.000000
  0.000000  0.080000  0.000000
  0.000000  0.070000  0.000000
  0.000000  0.060000  0.000000
  0.000000  0.050000  0.000000
  0.000000  0.040000  0.000000
  0.000000  0.030000  0.000000
  0.000000  0.020000  0.000000
  0.000000  0.010000  0.000000
 -0.100000  0.000000  0.000000
 -0.090000  0.000000  0.000000
 -0.080000  0.000000  0.000000
 -0.070000  0.000000  0.000000
 -0.060000  0.000000  0.000000
 -0.050000  0.000000  0.000000
 -0.040000  0.000000  0.000000
 -0.030000  0.000000  0.000000
 -0.020000  0.000000  0.000000
 -0.010000  0.000000  0.000000
 -0.000000  0.000000  0.000000
  0.010000  0.000000  0.000000
  0.020000  0.000000  0.000000
  0.030000  0.000000  0.000000
  0.040000  0.000000  0.000000
  0.050000  0.000000  0.000000
  0.060000  0.000000  0.000000
  0.070000  0.000000  0.000000
  0.080000  0.000000  0.000000
  0.090000  0.000000  0.000000
  0.100000  0.000000  0.000000
  0.110000  0.000000  0.000000
  0.120000  0.000000  0.000000
  0.130000  0.000000  0.000000
  0.140000  0.000000  0.000000
  0.150000  0.000000  0.000000
  0.160000  0.000000  0.000000
  0.170000  0.000000  0.000000
  0.180000  0.000000  0.000000
  0.190000  0.000000  0.000000
  0.200000  0.000000  0.000000
  0.210000  0.000000  0.000000
  0.220000  0.000000  0.000000
  0.230000  0.000000  0.000000
  0.240000  0.000000  0.000000
  0.250000  0.000000  0.000000
  0.260000  0.000000  0.000000
  0.270000  0.000000  0.000000
  0.280000  0.000000  0.000000
  0.290000  0.000000  0.000000
  0.300000  0.000000  0.000000
  0.310000  0.000000  0.000000
  0.320000  0.000000  0.000000
  0.330000  0.000000  0.000000
  0.340000  0.000000  0.000000
  0.350000  0.000000  0.000000
  0.360000  0.000000  0.000000
  0.370000  0.000000  0.000000
  0.380000  0.000000  0.000000
  0.390000  0.000000  0.000000
  0.400000  0.000000  0.000000
  0.410000  0.000000  0.000000
  0.420000  0.000000  0.000000
  0.430000  0.000000  0.000000
  0.440000  0.000000  0.000000
  0.450000  0.000000  0.000000
  0.460000  0.000000  0.000000
  0.470000  0.000000  0.000000
  0.480000  0.000000  0.000000
  0.490000  0.000000  0.000000
  0.500000  0.000000  0.000000
  0.510000  0.000000  0.000000
  0.520000  0.000000  0.000000
  0.530000  0.000000  0.000000
  0.540000  0.000000  0.000000
  0.550000  0.000000  0.000000
  0.560000  0.000000  0.000000
  0.570000  0.000000  0.000000
  0.580000  0.000000  0.000000
  0.590000  0.000000  0.000000
  0.600000  0.000000  0.000000
  0.610000  0.000000  0.000000
  0.620000  0.000000  0.000000
  0.630000  0.000000  0.000000
  0.640000  0.000000  0.000000
  0.650000  0.000000  0.000000
  0.660000  0.000000  0.000000
  0.670000  0.000000  0.000000
  0.680000  0.000000  0.000000
  0.690000  0.000000  0.000000
  0.700000  0.000000  0.000000
  0.710000  0.000000  0.000000
  0.720000  0.000000  0.000000
  0.730000  0.000000  0.000000
  0.740000  0.000000  0.000000
  0.750000  0.000000  0.000000
  0.760000  0.000000  0.000000
  0.770000  0.000000  0.000000
  0.780000  0.000000  0.000000
  0.790000  0.000000  0.000000
  0.800000  0.000000  0.000000
  0.700000  0.010000  0.000000
  0.700000  0.020000  0.000000
  0.700000  0.030000  0.000000
  0.700000  0.040000  0.000000
  0.700000  0.050000  0.000000
  0.700000  0.060000  0.000000
  0.700000  0.070000  0.000000
  0.700000  0.080000  0.000000
  0.700000  0.090000  0.000000
  0.700000  0.100000  0.000000
  0.700000  0.110000  0.000000
  0.700000  0.120000  0.000000
  0.700000  0.130000  0.000000
  0.700000  0.140000  0.000000
  0.700000  0.150000  0.000000
  0.700000  0.160000  0.000000
  0.700000  0.170000  0.000000
  0.700000  0.180000  0.000000
  0.700000  0.190000  0.000000
  0.700000  0.200000  0.000000
  0.700000  0.210000  0.000000
  0.700000  0.220000  0.000000
  0.700000  0.230000  0.000000
  0.700000  0.240000  0.000000
  0.700000  0.250000  0.000000
  0.700000  0.260000  0.000000
  0.700000  0.270000  0.000000
  0.700000  0.280000  0.000000
  0.700000  0.290000  0.000000
  0.700000  0.300000  0.000000
  0.700000  0.310000  0.000000
  0.700000  0.320000  0.000000
  0.700000  0.330000  0.000000
  0.700000  0.340000  0.000000
  0.700000  0.350000  0.000000
  0.700000  0.360000  0.000000
  0.700000  0.370000  0.000000
  0.700000  0.380000  0.000000
  0.700000  0.390000  0.000000
  0.700000  0.400000  0.000000
  0.700000  0.410000  0.000000
  0.700000  0.420000  0.000000
  0.700000  0.430000  0.000000
  0.700000  0.440000  0.000000
  0.700000  0.450000  0.000000
  0.700000  0.460000  0.000000
  0.700000  0.470000  0.000000
  0.700000  0.480000  0.000000
  0.700000  0.490000  0.000000
  0.700000  0.500000  0.000000
  0.018933  0.010977  0.000000
  0.020722  0.019239  0.000000
  0.035230  0.014988  0.000000
  0.009206  0.010244  0.000000
  0.031183  0.022651  0.000000
  0.011009  0.020910  0.000000
  0.035521  0.029863  0.000000
  0.043585  0.019223  0.000000
  0.059699  0.027019  0.000000
  0.041191  0.035623  0.000000
  0.048481  0.038366  0.000000
  0.009332  0.030012  0.000000
  0.009666  0.042139  0.000000
  0.011678  0.048851  0.000000
  0.009694  0.059240  0.000000
  0.022107  0.055284  0.000000
  0.037322  0.061181  0.000000
  0.013301  0.065210  0.000000
  0.026688  0.080774  0.000000
  0.008879  0.075970  0.000000
  0.016237  0.076845  0.000000
  0.009883  0.087787  0.000000
  0.009672  0.097410  0.000000
  0.015871  0.107469  0.000000
  0.009342  0.109721  0.000000
  0.022166  0.115254  0.000000
  0.009595  0.122704  0.000000
  0.020392  0.126347  0.000000
  0.014941  0.126328  0.000000
  0.028799  0.124539  0.000000
  0.045256  0.008896  0.000000
  0.029027  0.008527  0.000000
  0.054501  0.010495  0.000000
  0.051663  0.020667  0.000000
  0.067965  0.008854  0.000000
  0.071053  0.021135  0.000000
  0.088016  0.016284  0.000000
  0.064005  0.014521  0.000000
  0.059111  0.042414  0.000000
  0.052707  0.030181  0.000000
  0.042465  0.049244  0.000000
  0.022558  0.030495  0.000000
  0.060083  0.046280  0.000000
  0.030436  0.039539  0.000000
  0.054161  0.060690  0.000000
  0.022236  0.048162  0.000000
  0.018160  0.033974  0.000000
  0.034711  0.058542  0.000000
  0.048104  0.062877  0.000000
  0.023372  0.065938  0.000000
  0.049337  0.077503  0.000000
  0.036723  0.076118  0.000000
  0.021672  0.087392  0.000000
  0.036858  0.088687  0.000000
  0.020562  0.094369  0.000000
  0.035247  0.103007  0.000000
  0.023315  0.101475  0.000000
  0.033836  0.106612  0.000000
  0.031675  0.115358  0.000000
  0.041006  0.121579  0.000000
  0.102993  0.010611  0.000000
  0.081369  0.009077  0.000000
  0.092579  0.010016  0.000000
  0.078328  0.019573  0.000000
  0.101053  0.023390  0.000000
  0.121152  0.013785  0.000000
  0.134388  0.022347  0.000000
  0.104427  0.038107  0.000000
  0.087093  0.046578  0.000000
  0.068064  0.031050  0.000000
  0.087848  0.034906  0.000000
  0.091374  0.025965  0.000000
  0.068046  0.052110  0.000000
  0.072220  0.068726  0.000000
  0.083583  0.060967  0.000000
  0.031373  0.046077  0.000000
  0.061600  0.063134  0.000000
  0.048345  0.050576  0.000000
  0.044173  0.074730  0.000000
  0.027987  0.071184  0.000000
  0.059871  0.072796  0.000000
  0.059079  0.083481  0.000000
  0.049593  0.088683  0.000000
  0.038873  0.090074  0.000000
  0.056281  0.097708  0.000000
  0.045883  0.100131  0.000000
  0.050295  0.106756  0.000000
  0.055280  0.112976  0.000000
  0.050169  0.118516  0.000000
  0.043080  0.125853  0.000000
  0.139012  0.010321  0.000000
  0.111016  0.009572  0.000000
  0.138965  0.016333  0.000000
  0.107977  0.020019  0.000000
  0.132081  0.038072  0.000000
  0.126910  0.008795  0.000000
  0.132929  0.032873  0.000000
  0.124396  0.021556  0.000000
  0.115698  0.042195  0.000000
  0.081729  0.030221  0.000000
  0.122234  0.042317  0.000000
  0.076860  0.041981  0.000000
  0.107159  0.046793  0.000000
  0.071992  0.037107  0.000000
  0.069632  0.057036  0.000000
  0.100400  0.032298  0.000000
  0.081804  0.052157  0.000000
  0.093736  0.057343  0.000000
  0.080987  0.066818  0.000000
  0.077039  0.078666  0.000000
  0.095878  0.076206  0.000000
  0.065707  0.078472  0.000000
  0.061918  0.093057  0.000000
  0.081740  0.082637  0.000000
  0.072592  0.093107  0.000000
  0.066255  0.103465  0.000000
  0.074790  0.107701  0.000000
  0.068477  0.111079  0.000000
  0.064942  0.123586  0.000000
  0.071668  0.120924  0.000000
  0.168158  0.009117  0.000000
  0.152440  0.008524  0.000000
  0.166933  0.014922  0.000000
  0.153153  0.014815  0.000000
  0.187146  0.012499  0.000000
  0.150543  0.023457  0.000000
  0.142243  0.031456  0.000000
  0.157535  0.024717  0.000000
  0.115585  0.026307  0.000000
  0.156804  0.035793  0.000000
  0.118124  0.031064  0.000000
  0.148568  0.036257  0.000000
  0.137385  0.047684  0.000000
  0.125418  0.053357  0.000000
  0.134707  0.066620  0.000000
  0.095389  0.044835  0.000000
  0.119902  0.054305  0.000000
  0.102564  0.053043  0.000000
  0.113256  0.076778  0.000000
  0.100272  0.063090  0.000000
  0.088679  0.074266  0.000000
  0.100456  0.072167  0.000000
  0.094707  0.088820  0.000000
  0.076132  0.090764  0.000000
  0.094618  0.091898  0.000000
  0.085326  0.101637  0.000000
  0.087020  0.099323  0.000000
  0.088961  0.113449  0.000000
  0.084879  0.114181  0.000000
  0.081335  0.124134  0.000000
  0.196793  0.009213  0.000000
  0.180679  0.009699  0.000000
  0.214542  0.021667  0.000000
  0.191491  0.021650  0.000000
  0.236000  0.012755  0.000000
  0.199107  0.029743  0.000000
  0.216017  0.012044  0.000000
  0.174011  0.020259  0.000000
  0.184089  0.024698  0.000000
  0.205567  0.031428  0.000000
  0.180059  0.033409  0.000000
  0.188699  0.034983  0.000000
  0.170139  0.027466  0.000000
  0.149087  0.047775  0.000000
  0.137770  0.051921  0.000000
  0.143869  0.059308  0.000000
  0.116143  0.062351  0.000000
  0.155622  0.059590  0.000000
  0.110110  0.064405  0.000000
  0.130589  0.065671  0.000000
  0.121626  0.071291  0.000000
  0.124992  0.079819  0.000000
  0.106777  0.083876  0.000000
  0.116355  0.084472  0.000000
  0.113592  0.097583  0.000000
  0.105202  0.093341  0.000000
  0.105906  0.104144  0.000000
  0.104419  0.108005  0.000000
  0.098029  0.114533  0.000000
  0.102124  0.119859  0.000000
  0.250818  0.012554  0.000000
  0.206819  0.013128  0.000000
  0.224241  0.011042  0.000000
  0.201965  0.018204  0.000000
  0.276266  0.025537  0.000000
  0.239851  0.011473  0.000000
  0.254438  0.016791  0.000000
  0.227201  0.019341  0.000000
  0.221755  0.026577  0.000000
  0.223026  0.034400  0.000000
  0.209057  0.035160  0.000000
  0.216809  0.045090  0.000000
  0.190885  0.041719  0.000000
  0.165547  0.033763  0.000000
  0.171278  0.042807  0.000000
  0.154971  0.047266  0.000000
  0.161674  0.055787  0.000000
  0.173056  0.057389  0.000000
  0.152439  0.066565  0.000000
  0.142583  0.072168  0.000000
  0.157998  0.074730  0.000000
  0.139587  0.079366  0.000000
  0.132152  0.084224  0.000000
  0.137930  0.091493  0.000000
  0.123892  0.093520  0.000000
  0.133044  0.097509  0.000000
  0.125425  0.105749  0.000000
  0.121160  0.103750  0.000000
  0.118947  0.117202  0.000000
  0.112759  0.119699  0.000000
  0.268950  0.015991  0.000000
  0.261035  0.010120  0.000000
  0.313815  0.024651  0.000000
  0.274816  0.010824  0.000000
  0.322555  0.025964  0.000000
  0.291137  0.011228  0.000000
  0.293905  0.028922  0.000000
  0.269129  0.025986  0.000000
  0.283101  0.012861  0.000000
  0.259205  0.026829  0.000000
  0.244103  0.024499  0.000000
  0.236989  0.027563  0.000000
  0.236945  0.033155  0.000000
  0.200290  0.046108  0.000000
  0.209848  0.055790  0.000000
  0.181695  0.047776  0.000000
  0.171182  0.045735  0.000000
  0.194933  0.050911  0.000000
  0.179848  0.059393  0.000000
  0.189800  0.056908  0.000000
  0.168183  0.071730  0.000000
  0.167998  0.065219  0.000000
  0.168768  0.080553  0.000000
  0.149516  0.081172  0.000000
  0.157792  0.084289  0.000000
  0.151836  0.091991  0.000000
  0.149300  0.096284  0.000000
  0.142063  0.104501  0.000000
  0.140122  0.116848  0.000000
  0.139466  0.110298  0.000000
  0.323950  0.012903  0.000000
  0.309650  0.012372  0.000000
  0.334978  0.012433  0.000000
  0.314003  0.011540  0.000000
  0.347219  0.015135  0.000000
  0.328037  0.017769  0.000000
  0.338040  0.029374  0.000000
  0.299554  0.019880  0.000000
  0.297904  0.013979  0.000000
  0.298046  0.031986  0.000000
  0.266521  0.037796  0.000000
  0.268607  0.041064  0.000000
  0.254105  0.050117  0.000000
  0.251208  0.031026  0.000000
  0.244089  0.042721  0.000000
  0.210351  0.047396  0.000000
  0.226668  0.039517  0.000000
  0.224922  0.052162  0.000000
  0.224110  0.060055  0.000000
  0.208283  0.062735  0.000000
  0.198864  0.065683  0.000000
  0.187658  0.065980  0.000000
  0.187119  0.074014  0.000000
  0.181395  0.075767  0.000000
  0.183523  0.083705  0.000000
  0.170641  0.087344  0.000000
  0.168847  0.094656  0.000000
  0.161138  0.101699  0.000000
  0.158516  0.106657  0.000000
  0.152393  0.109865  0.000000
  0.395923  0.010903  0.000000
  0.344750  0.010307  0.000000
  0.403871  0.013287  0.000000
  0.368552  0.015492  0.000000
  0.413035  0.027713  0.000000
  0.375285  0.011927  0.000000
  0.405677  0.023540  0.000000
  0.352985  0.031802  0.000000
  0.327398  0.035759  0.000000
  0.309103  0.029845  0.000000
  0.312352  0.036672  0.000000
  0.302267  0.044813  0.000000
  0.256478  0.036572  0.000000
  0.283247  0.023128  0.000000
  0.286075  0.035401  0.000000
  0.279864  0.040585  0.000000
  0.251709  0.056546  0.000000
  0.243028  0.045473  0.000000
  0.243183  0.062052  0.000000
  0.232641  0.049130  0.000000
  0.236540  0.057887  0.000000
  0.216065  0.066192  0.000000
  0.226475  0.069799  0.000000
  0.202773  0.073977  0.000000
  0.206495  0.084288  0.000000
  0.196363  0.084377  0.000000
  0.191942  0.091002  0.000000
  0.185474  0.094326  0.000000
  0.174978  0.098354  0.000000
  0.175613  0.106664  0.000000
  0.434089  0.012401  0.000000
  0.398762  0.023931  0.000000
  0.467836  0.012860  0.000000
  0.420469  0.012405  0.000000
  0.457279  0.012233  0.000000
  0.411651  0.010743  0.000000
  0.434282  0.011711  0.000000
  0.420598  0.017688  0.000000
  0.387150  0.030593  0.000000
  0.366156  0.026376  0.000000
  0.384810  0.013687  0.000000
  0.339846  0.022671  0.000000
  0.340908  0.034724  0.000000
  0.343515  0.050630  0.000000
  0.333580  0.044579  0.000000
  0.301693  0.047268  0.000000
  0.287825  0.043515  0.000000
  0.280004  0.051143  0.000000
  0.279542  0.057642  0.000000
  0.267077  0.053836  0.000000
  0.263419  0.066473  0.000000
  0.251534  0.067320  0.000000
  0.235451  0.068661  0.000000
  0.237302  0.081511  0.000000
  0.209526  0.077203  0.000000
  0.223230  0.076695  0.000000
  0.212412  0.092976  0.000000
  0.197809  0.100799  0.000000
  0.199771  0.107431  0.000000
  0.187895  0.103813  0.000000
  0.525837  0.010152  0.000000
  0.488171  0.013685  0.000000
  0.527332  0.016421  0.000000
  0.503713  0.013857  0.000000
  0.513599  0.013836  0.000000
  0.483380  0.012499  0.000000
  0.473305  0.011054  0.000000
  0.444561  0.018801  0.000000
  0.449759  0.011551  0.000000
  0.431082  0.028266  0.000000
  0.421972  0.035749  0.000000
  0.386494  0.015784  0.000000
  0.378650  0.028264  0.000000
  0.367565  0.036242  0.000000
  0.356475  0.027261  0.000000
  0.347083  0.042755  0.000000
  0.333865  0.052285  0.000000
  0.322647  0.038638  0.000000
  0.327511  0.056341  0.000000
  0.312297  0.049720  0.000000
  0.292577  0.054126  0.000000
  0.301220  0.060570  0.000000
  0.263232  0.053083  0.000000
  0.272940  0.066396  0.000000
  0.255817  0.071887  0.000000
  0.241552  0.076954  0.000000
  0.230554  0.092115  0.000000
  0.229541  0.083952  0.000000
  0.215711  0.090554  0.000000
  0.207047  0.098341  0.000000
  0.625572  0.013043  0.000000
  0.583516  0.020934  0.000000
  0.584065  0.011091  0.000000
  0.561282  0.012798  0.000000
  0.574301  0.012107  0.000000
  0.540847  0.010726  0.000000
  0.511636  0.025530  0.000000
  0.519047  0.021059  0.000000
  0.501279  0.009692  0.000000
  0.475308  0.023810  0.000000
  0.457551  0.019691  0.000000
  0.441411  0.026934  0.000000
  0.425734  0.026796  0.000000
  0.437563  0.043577  0.000000
  0.390957  0.037822  0.000000
  0.394523  0.044740  0.000000
  0.378026  0.031889  0.000000
  0.361720  0.010630  0.000000
  0.357642  0.016465  0.000000
  0.381816  0.046484  0.000000
  0.356281  0.043160  0.000000
  0.338180  0.065101  0.000000
  0.318522  0.048754  0.000000
  0.289825  0.061849  0.000000
  0.283721  0.068698  0.000000
  0.270291  0.073819  0.000000
  0.256798  0.082136  0.000000
  0.250856  0.084482  0.000000
  0.242789  0.099783  0.000000
  0.228836  0.097784  0.000000
  0.654318  0.016947  0.000000
  0.623819  0.018603  0.000000
  0.634620  0.011201  0.000000
  0.613322  0.012074  0.000000
  0.631423  0.043879  0.000000
  0.593463  0.011791  0.000000
  0.564756  0.025302  0.000000
  0.574632  0.031702  0.000000
  0.530793  0.023619  0.000000
  0.565534  0.029563  0.000000
  0.545600  0.024791  0.000000
  0.504331  0.026133  0.000000
  0.484391  0.024698  0.000000
  0.499187  0.042533  0.000000
  0.467320  0.025663  0.000000
  0.450444  0.029286  0.000000
  0.455863  0.049693  0.000000
  0.416668  0.042945  0.000000
  0.420361  0.045809  0.000000
  0.402218  0.034845  0.000000
  0.379328  0.049500  0.000000
  0.362005  0.040025  0.000000
  0.361999  0.055920  0.000000
  0.328044  0.068469  0.000000
  0.319818  0.063550  0.000000
  0.304246  0.071771  0.000000
  0.284826  0.075879  0.000000
  0.276219  0.084405  0.000000
  0.259592  0.092200  0.000000
  0.251810  0.091996  0.000000
  0.673012  0.013289  0.000000
  0.676781  0.037200  0.000000
  0.673563  0.029512  0.000000
  0.666557  0.021814  0.000000
  0.652823  0.037752  0.000000
  0.642601  0.010850  0.000000
  0.607274  0.010009  0.000000
  0.620505  0.039340  0.000000
  0.582436  0.031190  0.000000
  0.594954  0.017508  0.000000
  0.589655  0.034116  0.000000
  0.552395  0.010846  0.000000
  0.568817  0.013083  0.000000
  0.555213  0.022414  0.000000
  0.494565  0.022076  0.000000
  0.516301  0.038781  0.000000
  0.499067  0.031977  0.000000
  0.467507  0.032331  0.000000
  0.467285  0.044920  0.000000
  0.447260  0.034871  0.000000
  0.434049  0.041104  0.000000
  0.404745  0.040302  0.000000
  0.391429  0.061176  0.000000
  0.374571  0.053160  0.000000
  0.347643  0.058045  0.000000
  0.346869  0.065730  0.000000
  0.312395  0.061120  0.000000
  0.299487  0.069115  0.000000
  0.287653  0.087395  0.000000
  0.271247  0.082586  0.000000
  0.681635  0.025110  0.000000
  0.681485  0.011180  0.000000
  0.684839  0.048817  0.000000
  0.683102  0.093599  0.000000
  0.666579  0.012911  0.000000
  0.655862  0.009742  0.000000
  0.668500  0.042102  0.000000
  0.656987  0.049991  0.000000
  0.638215  0.019403  0.000000
  0.648459  0.023036  0.000000
  0.645580  0.035865  0.000000
  0.625351  0.030169  0.000000
  0.608906  0.029313  0.000000
  0.631776  0.032192  0.000000
  0.594421  0.038723  0.000000
  0.564038  0.042694  0.000000
  0.549360  0.041441  0.000000
  0.545032  0.017447  0.000000
  0.524999  0.032783  0.000000
  0.500080  0.049807  0.000000
  0.489270  0.032311  0.000000
  0.460377  0.036556  0.000000
  0.433159  0.052412  0.000000
  0.430701  0.065144  0.000000
  0.405834  0.050395  0.000000
  0.378047  0.061813  0.000000
  0.359081  0.056394  0.000000
  0.336357  0.080235  0.000000
  0.321807  0.075449  0.000000
  0.291036  0.081462  0.000000
  0.683992  0.079948  0.000000
  0.675293  0.130659  0.000000
  0.689746  0.035238  0.000000
  0.689856  0.054584  0.000000
  0.643491  0.160590  0.000000
  0.674161  0.049563  0.000000
  0.683456  0.071625  0.000000
  0.674113  0.084859  0.000000
  0.681979  0.124982  0.000000
  0.676976  0.066380  0.000000
  0.658369  0.028663  0.000000
  0.662139  0.034470  0.000000
  0.654143  0.053149  0.000000
  0.642551  0.050648  0.000000
  0.641403  0.029511  0.000000
  0.641166  0.046915  0.000000
  0.604145  0.036107  0.000000
  0.595583  0.025172  0.000000
  0.573667  0.040503  0.000000
  0.550508  0.033536  0.000000
  0.519729  0.045822  0.000000
  0.511512  0.041882  0.000000
  0.483375  0.037987  0.000000
  0.479390  0.059019  0.000000
  0.431637  0.056226  0.000000
  0.416166  0.057955  0.000000
  0.399017  0.057982  0.000000
  0.373061  0.067040  0.000000
  0.342163  0.072281  0.000000
  0.317994  0.076099  0.000000
  0.686222  0.061831  0.000000
  0.647786  0.216392  0.000000
  0.685520  0.114486  0.000000
  0.686125  0.039246  0.000000
  0.688520  0.099175  0.000000
  0.689141  0.020849  0.000000
  0.688348  0.014022  0.000000
  0.687602  0.093575  0.000000
  0.666828  0.106713  0.000000
  0.677432  0.138081  0.000000
  0.676917  0.113400  0.000000
  0.675810  0.059575  0.000000
  0.670710  0.090269  0.000000
  0.671924  0.106906  0.000000
  0.665101  0.051971  0.000000
  0.657790  0.067832  0.000000
  0.650258  0.064524  0.000000
  0.637571  0.062932  0.000000
  0.616812  0.026279  0.000000
  0.608313  0.043069  0.000000
  0.587788  0.050900  0.000000
  0.579236  0.057523  0.000000
  0.534237  0.047771  0.000000
  0.534242  0.032989  0.000000
  0.491507  0.050491  0.000000
  0.476383  0.040419  0.000000
  0.445884  0.057742  0.000000
  0.414669  0.057232  0.000000
  0.369620  0.066187  0.000000
  0.360553  0.068203  0.000000
  0.640602  0.206802  0.000000
  0.682514  0.172021  0.000000
  0.691106  0.077847  0.000000
  0.618886  0.299967  0.000000
  0.677076  0.267883  0.000000
  0.631702  0.231688  0.000000
  0.672041  0.264156  0.000000
  0.678357  0.142087  0.000000
  0.677469  0.178148  0.000000
  0.673188  0.207507  0.000000
  0.667075  0.153209  0.000000
  0.685665  0.135193  0.000000
  0.689484  0.155043  0.000000
  0.655914  0.143661  0.000000
  0.664471  0.065171  0.000000
  0.687511  0.118113  0.000000
  0.667219  0.078162  0.000000
  0.662959  0.122262  0.000000
  0.650984  0.082130  0.000000
  0.646380  0.075382  0.000000
  0.619578  0.057715  0.000000
  0.608543  0.020238  0.000000
  0.625161  0.047108  0.000000
  0.545007  0.050976  0.000000
  0.544961  0.045383  0.000000
  0.527678  0.043206  0.000000
  0.484523  0.048041  0.000000
  0.449456  0.043751  0.000000
  0.405296  0.067956  0.000000
  0.398666  0.064147  0.000000
  0.577237  0.341819  0.000000
  0.656415  0.192628  0.000000
  0.560125  0.313245  0.000000
  0.547155  0.354338  0.000000
  0.617191  0.329303  0.000000
  0.653540  0.231853  0.000000
  0.677345  0.246182  0.000000
  0.680991  0.297395  0.000000
  0.675714  0.229072  0.000000
  0.663890  0.313996  0.000000
  0.653958  0.210466  0.000000
  0.665210  0.204199  0.000000
  0.682562  0.208575  0.000000
  0.683047  0.182687  0.000000
  0.661488  0.153659  0.000000
  0.684225  0.162770  0.000000
  0.659113  0.107998  0.000000
  0.655401  0.095115  0.000000
  0.665072  0.092464  0.000000
  0.658789  0.079081  0.000000
  0.641559  0.067132  0.000000
  0.630849  0.056220  0.000000
  0.611306  0.050071  0.000000
  0.584486  0.048181  0.000000
  0.561542  0.047418  0.000000
  0.512233  0.055034  0.000000
  0.468299  0.056755  0.000000
  0.466561  0.053337  0.000000
  0.423847  0.066470  0.000000
 -0.010000  0.500000  0.000000
 -0.010000  0.490000  0.000000
 -0.010000  0.480000  0.000000
 -0.010000  0.470000  0.000000
 -0.010000  0.460000  0.000000
 -0.010000  0.450000  0.000000
 -0.010000  0.440000  0.000000
 -0.010000  0.430000  0.000000
 -0.010000  0.420000  0.000000
 -0.010000  0.410000  0.000000
 -0.010000  0.400000  0.000000
 -0.010000  0.390000  0.000000
 -0.010000  0.380000  0.000000
 -0.010000  0.370000  0.000000
 -0.010000  0.360000  0.000000
 -0.010000  0.350000  0.000000
 -0.010000  0.340000  0.000000
 -0.010000  0.330000  0.000000
 -0.010000  0.320000  0.000000
 -0.010000  0.310000  0.000000
 -0.010000  0.300000  0.000000
 -0.010000  0.290000  0.000000
 -0.010000  0.280000  0.000000
 -0.010000  0.270000  0.000000
 -0.010000  0.260000  0.000000
 -0.010000  0.250000  0.000000
 -0.010000  0.240000  0.000000
 -0.010000  0.230000  0.000000
 -0.010000  0.220000  0.000000
 -0.010000  0.210000  0.000000
 -0.010000  0.200000  0.000000
 -0.010000  0.190000  0.000000
 -0.010000  0.180000  0.000000
 -0.010000  0.170000  0.000000
 -0.010000  0.160000  0.000000
 -0.010000  0.150000  0.000000
 -0.010000  0.140000  0.000000
 -0.010000  0.130000  0.000000
 -0.010000  0.120000  0.000000
 -0.010000  0.110000  0.000000
 -0.010000  0.100000  0.000000
 -0.010000  0.090000  0.000000
 -0.010000  0.080000  0.000000
 -0.010000  0.070000  0.000000
 -0.010000  0.060000  0.000000
 -0.010000  0.050000  0.000000
 -0.010000  0.040000  0.000000
 -0.010000  0.030000  0.000000
 -0.010000  0.020000  0.000000
 -0.010000  0.010000  0.000000
 -0.100000 -0.010000  0.000000
 -0.090000 -0.010000  0.000000
 -0.080000 -0.010000  0.000000
 -0.070000 -0.010000  0.000000
 -0.060000 -0.010000  0.000000
 -0.050000 -0.010000  0.000000
 -0.040000 -0.010000  0.000000
 -0.030000 -0.010000  0.000000
 -0.020000 -0.010000  0.000000