<?xml version="1.0" encoding="UTF-8"?>
<VTKFile type="UnstructuredGrid" version="1.0" byte_order="LittleEndian">
<UnstructuredGrid>
  <Piece NumberOfPoints="1547" NumberOfCells="1547">
      <PointData>
        <DataArray type="Int32" Name="Type" format="ascii">
 1 1 1 1 1 1 1 1 1 1
 1 1 1 1 1 1 1 1 1 1
 1 1 1 1 1 1 1 1 1 1
 1 1 1 1 1 1 1 1 1 1
 1 1 1 1 1 1 1 1 1 1
 1 1 1 1 1 1 1 1 1 1
 1 3 3 3 3 3 3 3 3 3
 3 3 3 3 3 3 3 3 3 3
 3 3 3 3 3 3 3 3 3 3
 3 3 3 3 3 3 3 3 3 3
 3 3 3 3 3 3 3 3 3 3
 3 3 3 3 3 3 3 3 3 3
 3 3 3 3 3 3 3 3 3 3
 1 1 1 1 1 1 1 1 1 1
 1 1 1 1 1 1 1 1 1 1
 1 1 1 1 1 1 1 1 1 1
 1 1 1 1 1 1 1 1 1 1
 1 1 1 1 1 1 1 1 1 1
 1 1 1 1 1 1 1 1 1 1
 1 2 2 2 2 2 2 2 2 2
 2 2 2 2 2 2 2 2 2 2
 2 2 2 2 2 2 2 2 2 2
 2 2 2 2 2 2 2 2 2 2
 2 2 2 2 2 2 2 2 2 2
 2 2 2 2 2 2 2 2 2 2
 2 2 2 2 2 2 2 2 2 2
 2 2 2 2 2 2 2 2 2 2
 2 2 2 2 2 2 2 2 2 2
 2 2 2 2 2 2 2 2 2 2
 2 2 2 2 2 2 2 2 2 2
 2 2 2 2 2 2 2 2 2 2
 2 2 2 2 2 2 2 2 2 2
 2 2 2 2 2 2 2 2 2 2
 2 2 2 2 2 2 2 2 2 2
 2 2 2 2 2 2 2 2 2 2
 2 2 2 2 2 2 2 2 2 2
 2 2 2 2 2 2 2 2 2 2
 2 2 2 2 2 2 2 2 2 2
 2 2 2 2 2 2 2 2 2 2
 2 2 2 2 2 2 2 2 2 2
 2 2 2 2 2 2 2 2 2 2
 2 2 2 2 2 2 2 2 2 2
 2 2 2 2 2 2 2 2 2 2
 2 2 2 2 2 2 2 2 2 2
 2 2 2 2 2 2 2 2 2 2
 2 2 2 2 2 2 2 2 2 2
 2 2 2 2 2 2 2 2 2 2
 2 2 2 2 2 2 2 2 2 2
 2 2 2 2 2 2 2 2 2 2
 2 2 2 2 2 2 2 2 2 2
 2 2 2 2 2 2 2 2 2 2
 2 2 2 2 2 2 2 2 2 2
 2 2 2 2 2 2 2 2 2 2
 2 2 2 2 2 2 2 2 2 2
 2 2 2 2 2 2 2 2 2 2
 2 2 2 2 2 2 2 2 2 2
 2 2 2 2 2 2 2 2 2 2
 2 2 2 2 2 2 2 2 2 2
 2 2 2 2 2 2 2 2 2 2
 2 2 2 2 2 2 2 2 2 2
 2 2 2 2 2 2 2 2 2 2
 2 2 2 2 2 2 2 2 2 2
 2 2 2 2 2 2 2 2 2 2
 2 2 2 2 2 2 2 2 2 2
 2 2 2 2 2 2 2 2 2 2
 2 2 2 2 2 2 2 2 2 2
 2 2 2 2 2 2 2 2 2 2
 2 2 2 2 2 2 2 2 2 2
 2 2 2 2 2 2 2 2 2 2
 2 2 2 2 2 2 2 2 2 2
 2 2 2 2 2 2 2 2 2 2
 2 2 2 2 2 2 2 2 2 2
 2 2 2 2 2 2 2 2 2 2
 2 2 2 2 2 2 2 2 2 2
 2 2 2 2 2 2 2 2 2 2
 2 2 2 2 2 2 2 2 2 2
 2 2 2 2 2 2 2 2 2 2
 2 2 2 2 2 2 2 2 2 2
 2 2 2 0 0 0 0 0 0 0
 0 0 0 0 0 0 0 0 0 0
 0 0 0 0 0 0 0 0 0 0
 0 0 0 0 0 0 0 0 0 0
 0 0 0 0 0 0 0 0 0 0
 0 0 0 0 0 0 0 0 0 0
 0 0 0 0 0 0 0 0 0 0
 0 0 0 0 0 0 0 0 0 0
 0 0 0 0 0 0 0 0 0 0
 0 0 0 0 0 0 0 0 0 0
 0 0 0 0 0 0 0 0 0 0
 0 0 0 0 0 0 0 0 0 0
 0 0 0 0 0 0 0 0 0 0
 0 0 0 0 0 0 0 0 0 0
 0 0 0 0 0 0 0 0 0 0
 0 0 0 0 0 0 0 0 0 0
 0 0 0 0 0 0 0 0 0 0
 0 0 0 0 0 0 0 0 0 0
 0 0 0 0 0 0 0 0 0 0
 0 0 0 0 0 0 0 0 0 0
 0 0 0 0 0 0 0 0 0 0
 0 0 0 0 0 0 0 0 0 0
 0 0 0 0 0 0 0 0 0 0
 0 0 0 0 0 0 0 0 0 0
 0 0 0 0 0 0 0 0 0 0
 0 0 0 0 0 0 0 0 0 0
 0 0 0 0 0 0 0 0 0 0
 0 0 0 0 0 0 0 0 0 0
 0 0 0 0 0 0 0 0 0 0
 0 0 0 0 0 0 0 0 0 0
 0 0 0 0 0 0 0 0 0 0
 0 0 0 0 0 0 0 0 0 0
 0 0 0 0 0 0 0 0 0 0
 0 0 0 0 0 0 0 0 0 0
 0 0 0 0 0 0 0 0 0 0
 0 0 0 0 0 0 0 0 0 0
 0 0 0 0 0 0 0 0 0 0
 0 0 0 0 0 0 0 0 0 0
 0 0 0 0 0 0 0 0 0 0
 0 0 0 0 0 0 0 0 0 0
 0 0 0 0 0 0 0 0 0 0
 0 0 0 0 0 0 0 0 0 0
 0 0 0 0 0 0 0 0 0 0
 0 0 0 0 0 0 0 0 0 0
 0 0 0 0 0 0 0 0 0 0
 0 0 0 0 0 0 0 0 0 0
 0 0 0 0 0 0 0 0 0 0
 0 0 0 0 0 0 0 0 0 0
 0 0 0 0 0 0 0 0 0 0
 0 0 0 0 0 0 0 0 0 0
 0 0 0 0 0 0 0 0 0 0
 0 0 0 0 0 0 0 0 0 0
 0 0 0 0 0 0 0 0 0 0
 0 0 0 0 0 0 0 0 0 0
 0 0 0 0 0 0 0 0 0 0
 0 0 0 0 0 0 0 0 0 0
 0 0 0 0 0 0 0 0 0 0
 0 0 0 0 0 0 0 0 0 0
 0 0 0 0 0 0 0 0 0 0
 0 0 0 0 0 0 0 0 0 0
 0 0 0 0 0 0 0 0 0 0
 0 0 0 0 0 0 0 0 0 0
 0 0 0 0 0 0 0 0 0 0
 0 0 0 0 0 0 0 0 0 0
 0 0 0 0 0 0 0 0 0 0
 0 0 0 0 0 0 0 0 0 0
 0 0 0 0 0 0 0 0 0 0
 0 0 0 0 0 0 0 0 0 0
 0 0 0 0 0 0 0 0 0 0
 0 0 0 0 0 0 0 0 0 0
 0 0 0 0 0 0 0 0 0 0
 0 0 0 0 0 0 0 0 0 0
 0 0 0 0 0 0 0 0 0 0
 0 0 0 0 0 0 0 0 0 0
 0 0 0 0 0 0 0 0 0 0
 0 0 0 0 0 0 0 0 0 0
 0 0 0 0 0 0 0
        </DataArray>
      </PointData>
      <Points>
        <DataArray type="Float32" NumberOfComponents="3" format="ascii">
  0.000000  0.500000  0.000000
  0.000000  0.490000  0.000000
  0.000000  0.480000  0.000000
  0.000000  0.470000  0.000000
  0.000000  0.460000  0.000000
  0.000000  0.450000  0.000000
  0.000000  0.440000  0.000000
  0.000000  0.430000  0.000000
  0.000000  0.420000  0.000000
  0.000000  0.410000  0.000000
  0.000000  0.400000  0.000000
  0.000000  0.390000  0.000000
  0.000000  0.380000  0.000000
  0.000000  0.370000  0.000000
  0.000000  0.360000  0.000000
  0.000000  0.350000  0.000000
  0.000000  0.340000  0.000000
  0.000000  0.330000  0.000000
  0.000000  0.320000  0.000000
  0.000000  0.310000  0.000000
  0.000000  0.300000  0.000000
  0.000000  0.290000  0.000000
  0.000000  0.280000  0.000000
  0.000000  0.270000  0.000000
  0.000000  0.260000  0.000000
  0.000000  0.250000  0.000000
  0.000000  0.240000  0.000000
  0.000000  0.230000  0.000000
  0.000000  0.220000  0.000000
  0.000000  0.210000  0.000000
  0.000000  0.200000  0.000000
  0.000000  0.190000  0.000000
  0.000000  0.180000  0.000000
  0.000000  0.170000  0.000000
  0.000000  0.160000  0.000000
  0.000000  0.150000  0.000000
  0.000000  0.140000  0.000000
  0.000000  0.130000  0.000000
  0.000000  0.120000  0.000000
  0.000000  0.110000  0.000000
  0.000000  0.100000  0.000000
  0.000000  0.090000  0.000000
  0.000000  0.080000  0.000000
  0.000000  0.070000  0.000000
  0.000000  0.060000  0.000000
  0.000000  0.050000  0.000000
  0.000000  0.040000  0.000000
  0.000000  0.030000  0.000000
  0.000000  0.020000  0.000000
  0.000000  0.010000  0.000000
 -0.100000  0.000000  0.000000
 -0.090000  0.000000  0.000000
 -0.080000  0.000000  0.000000
 -0.070000  0.000000  0.000000
 -0.060000  0.000000  0.000000
 -0.050000  0.000000  0.000000
 -0.040000  0.000000  0.000000
 -0.030000  0.000000  0.000000
 -0.020000  0.000000  0.000000
 -0.010000  0.000000  0.000000
 -0.000000  0.000000  0.000000
  0.010000  0.000000  0.000000
  0.020000  0.000000  0.000000
  0.030000  0.000000  0.000000
  0.040000  0.000000  0.000000
  0.050000  0.000000  0.000000
  0.060000  0.000000  0.000000
  0.070000  0.000000  0.000000
  0.080000  0.000000  0.000000
  0.090000  0.000000  0.000000
  0.100000  0.000000  0.000000
  0.110000  0.000000  0.000000
  0.120000  0.000000  0.000000
  0.130000  0.000000  0.000000
  0.140000  0.000000  0.000000
  0.150000  0.000000  0.000000
  0.160000  0.000000  0.000000
  0.170000  0.000000  0.000000
  0.180000  0.000000  0.000000
  0.190000  0.000000  0.000000
  0.200000  0.000000  0.000000
  0.210000  0.000000  0.000000
  0.220000  0.000000  0.000000
  0.230000  0.000000  0.000000
  0.240000  0.000000  0.000000
  0.250000  0.000000  0.000000
  0.260000  0.000000  0.000000
  0.270000  0.000000  0.000000
  0.280000  0.000000  0.000000
  0.290000  0.000000  0.000000
  0.300000  0.000000  0.000000
  0.310000  0.000000  0.000000
  0.320000  0.000000  0.000000
  0.330000  0.000000  0.000000
  0.340000  0.000000  0.000000
  0.350000  0.000000  0.000000
  0.360000  0.000000  0.000000
  0.370000  0.000000  0.000000
  0.380000  0.000000  0.000000
  0.390000  0.000000  0.000000
  0.400000  0.000000  0.000000
  0.410000  0.000000  0.000000
  0.420000  0.000000  0.000000
  0.430000  0.000000  0.000000
  0.440000  0.000000  0.000000
  0.450000  0.000000  0.000000
  0.460000  0.000000  0.000000
  0.470000  0.000000  0.000000
  0.480000  0.000000  0.000000
  0.490000  0.000000  0.000000
  0.500000  0.000000  0.000000
  0.510000  0.000000  0.000000
  0.520000  0.000000  0.000000
  0.530000  0.000000  0.000000
  0.540000  0.000000  0.000000
  0.550000  0.000000  0.000000
  0.560000  0.000000  0.000000
  0.570000  0.000000  0.000000
  0.580000  0.000000  0.000000
  0.590000  0.000000  0.000000
  0.600000  0.000000  0.000000
  0.610000  0.000000  0.000000
  0.620000  0.000000  0.000000
  0.630000  0.000000  0.000000
  0.640000  0.000000  0.000000
  0.650000  0.000000  0.000000
  0.660000  0.000000  0.000000
  0.670000  0.000000  0.000000
  0.680000  0.000000  0.000000
  0.690000  0.000000  0.000000
  0.700000  0.000000  0.000000
  0.710000  0.000000  0.000000
  0.720000  0.000000  0.000000
  0.730000  0.000000  0.000000
  0.740000  0.000000  0.000000
  0.750000  0.000000  0.000000
  0.760000  0.000000  0.000000
  0.770000  0.000000  0.000000
  0.780000  0.000000  0.000000
  0.790000  0.000000  0.000000
  0.800000  0.000000  0.000000
  0.700000  0.010000  0.000000
  0.700000  0.020000  0.000000
  0.700000  0.030000  0.000000
  0.700000  0.040000  0.000000
  0.700000  0.050000  0.000000
  0.700000  0.060000  0.000000
  0.700000  0.070000  0.000000
  0.700000  0.080000  0.000000
  0.700000  0.090000  0.000000
  0.700000  0.100000  0.000000
  0.700000  0.110000  0.000000
  0.700000  0.120000  0.000000
  0.700000  0.130000  0.000000
  0.700000  0.140000  0.000000
  0.700000  0.150000  0.000000
  0.700000  0.160000  0.000000
  0.700000  0.170000  0.000000
  0.700000  0.180000  0.000000
  0.700000  0.190000  0.000000
  0.700000  0.200000  0.000000
  0.700000  0.210000  0.000000
  0.700000  0.220000  0.000000
  0.700000  0.230000  0.000000
  0.700000  0.240000  0.000000
  0.700000  0.250000  0.000000
  0.700000  0.260000  0.000000
  0.700000  0.270000  0.000000
  0.700000  0.280000  0.000000
  0.700000  0.290000  0.000000
  0.700000  0.300000  0.000000
  0.700000  0.310000  0.000000
  0.700000  0.320000  0.000000
  0.700000  0.330000  0.000000
  0.700000  0.340000  0.000000
  0.700000  0.350000  0.000000
  0.700000  0.360000  0.000000
  0.700000  0.370000  0.000000
  0.700000  0.380000  0.000000
  0.700000  0.390000  0.000000
  0.700000  0.400000  0.000000
  0.700000  0.410000  0.000000
  0.700000  0.420000  0.000000
  0.700000  0.430000  0.000000
  0.700000  0.440000  0.000000
  0.700000  0.450000  0.000000
  0.700000  0.460000  0.000000
  0.700000  0.470000  0.000000
  0.700000  0.480000  0.000000
  0.700000  0.490000  0.000000
  0.700000  0.500000  0.000000
  0.020612  0.009886  0.000000
  0.023116  0.016493  0.000000
  0.039854  0.014805  0.000000
  0.009933  0.010035  0.000000
  0.047742  0.022807  0.000000
  0.009971  0.019325  0.000000
  0.052685  0.026640  0.000000
  0.054852  0.013888  0.000000
  0.088743  0.026276  0.000000
  0.061200  0.028722  0.000000
  0.070880  0.032800  0.000000
  0.011053  0.028811  0.000000
  0.019953  0.041201  0.000000
  0.010848  0.036626  0.000000
  0.009157  0.047354  0.000000
  0.023689  0.048240  0.000000
  0.049077  0.053558  0.000000
  0.011555  0.054940  0.000000
  0.040589  0.060137  0.000000
  0.008603  0.065293  0.000000
  0.020135  0.060533  0.000000
  0.015877  0.075252  0.000000
  0.011778  0.077017  0.000000
  0.016190  0.090769  0.000000
  0.009768  0.087500  0.000000
  0.032727  0.086951  0.000000
  0.007864  0.102824  0.000000
  0.021342  0.099918  0.000000
  0.022722  0.089901  0.000000
  0.039280  0.104056  0.000000
  0.047837  0.008527  0.000000
  0.032852  0.008934  0.000000
  0.065422  0.008424  0.000000
  0.063200  0.016289  0.000000
  0.085528  0.008297  0.000000
  0.091846  0.017992  0.000000
  0.107897  0.008627  0.000000
  0.076356  0.011994  0.000000
  0.080474  0.032108  0.000000
  0.071487  0.023033  0.000000
  0.048946  0.041215  0.000000
  0.034284  0.020687  0.000000
  0.073229  0.043060  0.000000
  0.033193  0.028885  0.000000
  0.058450  0.044729  0.000000
  0.025532  0.033136  0.000000
  0.020815  0.025629  0.000000
  0.036840  0.038594  0.000000
  0.063819  0.052965  0.000000
  0.030209  0.047850  0.000000
  0.064301  0.059625  0.000000
  0.041683  0.047901  0.000000
  0.021764  0.064541  0.000000
  0.036834  0.068449  0.000000
  0.027902  0.079202  0.000000
  0.039797  0.087265  0.000000
  0.030662  0.072925  0.000000
  0.044221  0.077819  0.000000
  0.041393  0.095568  0.000000
  0.056348  0.089793  0.000000
  0.134173  0.010542  0.000000
  0.097123  0.010727  0.000000
  0.122608  0.009258  0.000000
  0.102542  0.019482  0.000000
  0.121306  0.014835  0.000000
  0.154501  0.010094  0.000000
  0.176439  0.014443  0.000000
  0.133480  0.026805  0.000000
  0.104125  0.036478  0.000000
  0.079270  0.019378  0.000000
  0.118949  0.025687  0.000000
  0.110419  0.017660  0.000000
  0.087530  0.044794  0.000000
  0.092020  0.065786  0.000000
  0.112312  0.053995  0.000000
  0.044104  0.033998  0.000000
  0.074555  0.047668  0.000000
  0.061162  0.037968  0.000000
  0.053450  0.060184  0.000000
  0.033011  0.058032  0.000000
  0.075253  0.060333  0.000000
  0.071856  0.072242  0.000000
  0.058576  0.068309  0.000000
  0.049113  0.070387  0.000000
  0.064204  0.079665  0.000000
  0.055329  0.079469  0.000000
  0.059917  0.089677  0.000000
  0.069825  0.105748  0.000000
  0.069914  0.093978  0.000000
  0.046331  0.097563  0.000000
  0.174038  0.008465  0.000000
  0.142797  0.009935  0.000000
  0.188199  0.010444  0.000000
  0.147244  0.019472  0.000000
  0.172957  0.037191  0.000000
  0.160748  0.010965  0.000000
  0.162732  0.031384  0.000000
  0.164437  0.020672  0.000000
  0.145344  0.036078  0.000000
  0.096189  0.030238  0.000000
  0.157540  0.035332  0.000000
  0.108245  0.029990  0.000000
  0.130015  0.038212  0.000000
  0.087660  0.038668  0.000000
  0.088153  0.054896  0.000000
  0.135435  0.019524  0.000000
  0.099495  0.043702  0.000000
  0.114854  0.038678  0.000000
  0.099339  0.051210  0.000000
  0.097198  0.061781  0.000000
  0.125979  0.058086  0.000000
  0.081205  0.059161  0.000000
  0.075726  0.071553  0.000000
  0.107877  0.069537  0.000000
  0.091768  0.074235  0.000000
  0.075497  0.089343  0.000000
  0.090802  0.093128  0.000000
  0.080673  0.082989  0.000000
  0.075680  0.098871  0.000000
  0.092110  0.096805  0.000000
  0.212187  0.010447  0.000000
  0.194920  0.010407  0.000000
  0.203628  0.014121  0.000000
  0.185752  0.020916  0.000000
  0.245276  0.013288  0.000000
  0.180268  0.028131  0.000000
  0.171552  0.023538  0.000000
  0.193223  0.024606  0.000000
  0.154167  0.023620  0.000000
  0.204499  0.031758  0.000000
  0.143255  0.029192  0.000000
  0.185950  0.036174  0.000000
  0.172433  0.042061  0.000000
  0.160190  0.045748  0.000000
  0.169122  0.060739  0.000000
  0.123405  0.028196  0.000000
  0.146005  0.043365  0.000000
  0.124474  0.042285  0.000000
  0.138486  0.061403  0.000000
  0.113378  0.047822  0.000000
  0.108157  0.059361  0.000000
  0.128218  0.052595  0.000000
  0.115592  0.070860  0.000000
  0.085882  0.079932  0.000000
  0.119765  0.079304  0.000000
  0.098530  0.079515  0.000000
  0.105040  0.078389  0.000000
  0.121865  0.095927  0.000000
  0.107346  0.090639  0.000000
  0.096740  0.095563  0.000000
  0.247703  0.011398  0.000000
  0.224873  0.012515  0.000000
  0.277314  0.019673  0.000000
  0.243580  0.030057  0.000000
  0.292185  0.012814  0.000000
  0.252200  0.033847  0.000000
  0.268228  0.012816  0.000000
  0.232247  0.010675  0.000000
  0.235631  0.018399  0.000000
  0.257894  0.022446  0.000000
  0.221616  0.025528  0.000000
  0.231559  0.024963  0.000000
  0.215914  0.015584  0.000000
  0.188091  0.043237  0.000000
  0.171844  0.053899  0.000000
  0.184772  0.049159  0.000000
  0.135726  0.045301  0.000000
  0.199928  0.047613  0.000000
  0.144675  0.051785  0.000000
  0.161792  0.048702  0.000000
  0.149282  0.056702  0.000000
  0.157251  0.062939  0.000000
  0.122549  0.065597  0.000000
  0.145675  0.069340  0.000000
  0.140515  0.078713  0.000000
  0.134879  0.066365  0.000000
  0.132095  0.079412  0.000000
  0.130645  0.079079  0.000000
  0.112555  0.087646  0.000000
  0.126999  0.097122  0.000000
  0.312949  0.011332  0.000000
  0.259776  0.010511  0.000000
  0.275519  0.012408  0.000000
  0.256662  0.021262  0.000000
  0.348134  0.022580  0.000000
  0.302917  0.010797  0.000000
  0.326903  0.009402  0.000000
  0.286295  0.010663  0.000000
  0.283932  0.024637  0.000000
  0.270856  0.032575  0.000000
  0.269912  0.028194  0.000000
  0.279108  0.041679  0.000000
  0.239871  0.033968  0.000000
  0.204291  0.022567  0.000000
  0.213295  0.029625  0.000000
  0.195875  0.033386  0.000000
  0.202857  0.046750  0.000000
  0.223037  0.043383  0.000000
  0.189854  0.058906  0.000000
  0.179848  0.057776  0.000000
  0.195574  0.060786  0.000000
  0.174269  0.069741  0.000000
  0.157225  0.066894  0.000000
  0.172698  0.073819  0.000000
  0.157046  0.075981  0.000000
  0.163645  0.082432  0.000000
  0.155540  0.100693  0.000000
  0.151097  0.082798  0.000000
  0.148428  0.091209  0.000000
  0.145640  0.089454  0.000000
  0.340257  0.016326  0.000000
  0.330595  0.014761  0.000000
  0.383500  0.027040  0.000000
  0.344582  0.010950  0.000000
  0.406792  0.027319  0.000000
  0.368633  0.010393  0.000000
  0.366060  0.024002  0.000000
  0.345504  0.030210  0.000000
  0.353637  0.012812  0.000000
  0.331935  0.025027  0.000000
  0.315928  0.016639  0.000000
  0.300523  0.018440  0.000000
  0.298667  0.025251  0.000000
  0.256177  0.037938  0.000000
  0.268006  0.048748  0.000000
  0.225163  0.033622  0.000000
  0.213034  0.038786  0.000000
  0.253648  0.050664  0.000000
  0.233521  0.040347  0.000000
  0.246667  0.045080  0.000000
  0.210218  0.058725  0.000000
  0.211621  0.050286  0.000000
  0.217619  0.062609  0.000000
  0.184812  0.069434  0.000000
  0.201947  0.065244  0.000000
  0.192283  0.075002  0.000000
  0.188973  0.079508  0.000000
  0.176388  0.083593  0.000000
  0.171179  0.088747  0.000000
  0.177387  0.095118  0.000000
  0.414337  0.011103  0.000000
  0.392906  0.010674  0.000000
  0.423559  0.011149  0.000000
  0.396146  0.013943  0.000000
  0.439234  0.025342  0.000000
  0.407498  0.013540  0.000000
  0.423670  0.036623  0.000000
  0.376994  0.016104  0.000000
  0.379861  0.012116  0.000000
  0.376437  0.029035  0.000000
  0.329689  0.035214  0.000000
  0.339693  0.035341  0.000000
  0.319026  0.040064  0.000000
  0.324282  0.024369  0.000000
  0.314455  0.025125  0.000000
  0.267471  0.040113  0.000000
  0.290066  0.030686  0.000000
  0.276842  0.052518  0.000000
  0.292504  0.052347  0.000000
  0.259183  0.051166  0.000000
  0.239680  0.052782  0.000000
  0.232658  0.050748  0.000000
  0.229614  0.063123  0.000000
  0.222614  0.050900  0.000000
  0.230757  0.064790  0.000000
  0.210156  0.073765  0.000000
  0.205989  0.074484  0.000000
  0.202749  0.086020  0.000000
  0.213823  0.088752  0.000000
  0.188484  0.086150  0.000000
  0.495045  0.016139  0.000000
  0.423857  0.021532  0.000000
  0.505409  0.009813  0.000000
  0.470842  0.016233  0.000000
  0.516948  0.026911  0.000000
  0.470217  0.014143  0.000000
  0.507951  0.022963  0.000000
  0.450932  0.021338  0.000000
  0.421473  0.030894  0.000000
  0.389834  0.020630  0.000000
  0.394268  0.033565  0.000000
  0.380899  0.040104  0.000000
  0.312116  0.033721  0.000000
  0.360491  0.012935  0.000000
  0.362623  0.024806  0.000000
  0.356282  0.034643  0.000000
  0.305460  0.044541  0.000000
  0.305056  0.033505  0.000000
  0.301612  0.046096  0.000000
  0.285094  0.042456  0.000000
  0.292299  0.036362  0.000000
  0.268918  0.063452  0.000000
  0.280537  0.057807  0.000000
  0.247520  0.060117  0.000000
  0.269197  0.077731  0.000000
  0.251408  0.070802  0.000000
  0.244868  0.064243  0.000000
  0.230353  0.075836  0.000000
  0.218352  0.071775  0.000000
  0.226297  0.083156  0.000000
  0.532912  0.019050  0.000000
  0.490192  0.029674  0.000000
  0.586147  0.012054  0.000000
  0.520096  0.011945  0.000000
  0.568517  0.010475  0.000000
  0.508656  0.015099  0.000000
  0.539970  0.010777  0.000000
  0.528550  0.011422  0.000000
  0.485021  0.017713  0.000000
  0.451645  0.009652  0.000000
  0.478361  0.009326  0.000000
  0.411812  0.020623  0.000000
  0.431918  0.025176  0.000000
  0.442021  0.043104  0.000000
  0.420997  0.048584  0.000000
  0.372007  0.036525  0.000000
  0.366253  0.042474  0.000000
  0.350719  0.037881  0.000000
  0.345385  0.048647  0.000000
  0.331144  0.055082  0.000000
  0.329649  0.062872  0.000000
  0.314944  0.055681  0.000000
  0.293440  0.055063  0.000000
  0.296966  0.079690  0.000000
  0.265628  0.063459  0.000000
  0.261149  0.072077  0.000000
  0.278239  0.087557  0.000000
  0.243986  0.085564  0.000000
  0.247335  0.075683  0.000000
  0.228933  0.081432  0.000000
  0.628527  0.017373  0.000000
  0.592386  0.013485  0.000000
  0.635767  0.021210  0.000000
  0.614890  0.011327  0.000000
  0.624901  0.011440  0.000000
  0.603453  0.009940  0.000000
  0.575638  0.011934  0.000000
  0.551647  0.011073  0.000000
  0.557544  0.014183  0.000000
  0.536560  0.028228  0.000000
  0.522308  0.022774  0.000000
  0.491898  0.011715  0.000000
  0.479163  0.028004  0.000000
  0.466152  0.028035  0.000000
  0.436064  0.011486  0.000000
  0.430226  0.042117  0.000000
  0.412098  0.042725  0.000000
  0.410486  0.036035  0.000000
  0.406471  0.050356  0.000000
  0.401735  0.048092  0.000000
  0.362599  0.045995  0.000000
  0.382230  0.049596  0.000000
  0.327844  0.042595  0.000000
  0.336957  0.048585  0.000000
  0.319283  0.048780  0.000000
  0.300577  0.063102  0.000000
  0.281901  0.085670  0.000000
  0.284393  0.069555  0.000000
  0.281204  0.068638  0.000000
  0.262362  0.081631  0.000000
  0.672171  0.014058  0.000000
  0.658851  0.057800  0.000000
  0.664464  0.035036  0.000000
  0.651634  0.019574  0.000000
  0.656140  0.042986  0.000000
  0.647311  0.021699  0.000000
  0.626830  0.029069  0.000000
  0.619127  0.028892  0.000000
  0.613770  0.017854  0.000000
  0.586920  0.021282  0.000000
  0.572134  0.018968  0.000000
  0.543200  0.018165  0.000000
  0.528348  0.033205  0.000000
  0.546002  0.046909  0.000000
  0.472754  0.037542  0.000000
  0.489380  0.053277  0.000000
  0.460113  0.021757  0.000000
  0.453532  0.014785  0.000000
  0.434565  0.012779  0.000000
  0.484541  0.043263  0.000000
  0.443660  0.035053  0.000000
  0.423594  0.060049  0.000000
  0.399396  0.027990  0.000000
  0.374343  0.059073  0.000000
  0.368566  0.057661  0.000000
  0.339881  0.060804  0.000000
  0.322943  0.067032  0.000000
  0.308839  0.059092  0.000000
  0.305286  0.069599  0.000000
  0.289740  0.074534  0.000000
  0.684702  0.051882  0.000000
  0.670439  0.050340  0.000000
  0.674159  0.028245  0.000000
  0.662762  0.026094  0.000000
  0.668355  0.124010  0.000000
  0.658870  0.010691  0.000000
  0.656675  0.047035  0.000000
  0.667016  0.059848  0.000000
  0.642955  0.051432  0.000000
  0.657776  0.067412  0.000000
  0.642886  0.033146  0.000000
  0.616352  0.039102  0.000000
  0.597763  0.024021  0.000000
  0.618858  0.057135  0.000000
  0.576609  0.027415  0.000000
  0.557718  0.024023  0.000000
  0.563602  0.057166  0.000000
  0.515978  0.037840  0.000000
  0.538417  0.036788  0.000000
  0.500083  0.027434  0.000000
  0.469772  0.036942  0.000000
  0.452065  0.031940  0.000000
  0.451483  0.056724  0.000000
  0.403342  0.070514  0.000000
  0.395434  0.052761  0.000000
  0.388438  0.068216  0.000000
  0.349984  0.053209  0.000000
  0.345726  0.074136  0.000000
  0.324530  0.070918  0.000000
  0.311716  0.071773  0.000000
  0.688521  0.040470  0.000000
  0.677917  0.135110  0.000000
  0.673504  0.093508  0.000000
  0.689412  0.092000  0.000000
  0.689332  0.130415  0.000000
  0.686886  0.036645  0.000000
  0.674804  0.010865  0.000000
  0.656948  0.102647  0.000000
  0.660331  0.082394  0.000000
  0.671577  0.037333  0.000000
  0.670549  0.083045  0.000000
  0.645516  0.008522  0.000000
  0.662518  0.016692  0.000000
  0.652784  0.032776  0.000000
  0.603881  0.018218  0.000000
  0.630694  0.052516  0.000000
  0.603486  0.035048  0.000000
  0.572655  0.031742  0.000000
  0.572263  0.038828  0.000000
  0.552830  0.024205  0.000000
  0.551234  0.032797  0.000000
  0.501275  0.037510  0.000000
  0.476341  0.072735  0.000000
  0.459040  0.042490  0.000000
  0.438842  0.046490  0.000000
  0.451980  0.061768  0.000000
  0.390164  0.040532  0.000000
  0.384939  0.052698  0.000000
  0.356529  0.053177  0.000000
  0.344586  0.069420  0.000000
  0.685061  0.069417  0.000000
  0.690080  0.013817  0.000000
  0.685271  0.150103  0.000000
  0.687037  0.237296  0.000000
  0.688029  0.025367  0.000000
  0.684883  0.013420  0.000000
  0.665284  0.156688  0.000000
  0.683792  0.160329  0.000000
  0.681317  0.026890  0.000000
  0.689760  0.065366  0.000000
  0.686711  0.112229  0.000000
  0.680254  0.061826  0.000000
  0.682941  0.082299  0.000000
  0.660026  0.130466  0.000000
  0.652323  0.122516  0.000000
  0.659012  0.079218  0.000000
  0.649177  0.084490  0.000000
  0.637924  0.012922  0.000000
  0.627287  0.037856  0.000000
  0.608184  0.043627  0.000000
  0.609767  0.030542  0.000000
  0.559120  0.037376  0.000000
  0.541580  0.051220  0.000000
  0.548703  0.056966  0.000000
  0.490198  0.048449  0.000000
  0.476840  0.057427  0.000000
  0.454691  0.041587  0.000000
  0.415081  0.069057  0.000000
  0.398160  0.060996  0.000000
  0.364393  0.062164  0.000000
  0.671164  0.222152  0.000000
  0.632082  0.270535  0.000000
  0.685475  0.106483  0.000000
  0.657391  0.187505  0.000000
  0.599473  0.317866  0.000000
  0.674326  0.177359  0.000000
  0.685604  0.185102  0.000000
  0.684901  0.203154  0.000000
  0.674657  0.261698  0.000000
  0.664146  0.181470  0.000000
  0.688316  0.084667  0.000000
  0.687692  0.127264  0.000000
  0.672550  0.141116  0.000000
  0.641370  0.133314  0.000000
  0.674051  0.117388  0.000000
  0.676375  0.126855  0.000000
  0.671277  0.093488  0.000000
  0.676609  0.076312  0.000000
  0.661028  0.104264  0.000000
  0.648656  0.056231  0.000000
  0.632919  0.068555  0.000000
  0.615600  0.050494  0.000000
  0.589462  0.032667  0.000000
  0.596533  0.042819  0.000000
  0.531613  0.039937  0.000000
  0.509846  0.063098  0.000000
  0.489667  0.034227  0.000000
  0.478154  0.050830  0.000000
  0.423473  0.054128  0.000000
  0.380338  0.066996  0.000000
  0.670380  0.179359  0.000000
  0.573998  0.390173  0.000000
  0.673888  0.233797  0.000000
  0.687059  0.145264  0.000000
  0.671953  0.253129  0.000000
  0.687655  0.101568  0.000000
  0.689037  0.052277  0.000000
  0.680566  0.217226  0.000000
  0.664378  0.245152  0.000000
  0.687948  0.279415  0.000000
  0.615651  0.227535  0.000000
  0.656502  0.158994  0.000000
  0.625471  0.229023  0.000000
  0.654703  0.211813  0.000000
  0.685378  0.160843  0.000000
  0.667235  0.190476  0.000000
  0.670192  0.160710  0.000000
  0.656394  0.156256  0.000000
  0.670664  0.067116  0.000000
  0.674031  0.145325  0.000000
  0.659208  0.146269  0.000000
  0.644272  0.103105  0.000000
  0.639994  0.059980  0.000000
  0.642542  0.038935  0.000000
  0.610263  0.054293  0.000000
  0.584519  0.036959  0.000000
  0.553973  0.044153  0.000000
  0.513361  0.038074  0.000000
  0.464110  0.050372  0.000000
  0.438277  0.056165  0.000000
  0.579404  0.389585  0.000000
  0.647213  0.358853  0.000000
  0.683576  0.209430  0.000000
  0.676431  0.426397  0.000000
  0.554896  0.393280  0.000000
  0.646274  0.459312  0.000000
  0.637591  0.268301  0.000000
  0.645728  0.369288  0.000000
  0.620466  0.424180  0.000000
  0.644644  0.344371  0.000000
  0.667183  0.315953  0.000000
  0.669548  0.329137  0.000000
  0.634922  0.236856  0.000000
  0.666809  0.207865  0.000000
  0.654910  0.257703  0.000000
  0.688029  0.199500  0.000000
  0.689950  0.244483  0.000000
  0.641604  0.160695  0.000000
  0.644381  0.178207  0.000000
  0.636631  0.147030  0.000000
  0.672442  0.046901  0.000000
  0.674590  0.112749  0.000000
  0.645423  0.068413  0.000000
  0.644517  0.075829  0.000000
  0.634201  0.038173  0.000000
  0.591716  0.042623  0.000000
  0.563344  0.046018  0.000000
  0.508447  0.048048  0.000000
  0.500696  0.056391  0.000000
  0.588098  0.370483  0.000000
  0.617895  0.413503  0.000000
  0.642099  0.458851  0.000000
  0.668267  0.394619  0.000000
  0.546095  0.381713  0.000000
  0.661735  0.353576  0.000000
  0.672148  0.379782  0.000000
  0.671517  0.337471  0.000000
  0.642748  0.254679  0.000000
  0.685421  0.301283  0.000000
  0.632190  0.250283  0.000000
  0.629565  0.227027  0.000000
  0.655076  0.235303  0.000000
  0.658858  0.207555  0.000000
  0.651778  0.201486  0.000000
  0.650640  0.168426  0.000000
  0.656016  0.115774  0.000000
  0.657917  0.094817  0.000000
  0.644650  0.095180  0.000000
  0.628202  0.055699  0.000000
  0.572192  0.051223  0.000000
  0.584359  0.051963  0.000000
  0.510985  0.053075  0.000000
 -0.010000  0.500000  0.000000
 -0.010000  0.490000  0.000000
 -0.010000  0.480000  0.000000
 -0.010000  0.470000  0.000000
 -0.010000  0.460000  0.000000
 -0.010000  0.450000  0.000000
 -0.010000  0.440000  0.000000
 -0.010000  0.430000  0.000000
 -0.010000  0.420000  0.000000
 -0.010000  0.410000  0.000000
 -0.010000  0.400000  0.000000
 -0.010000  0.390000  0.000000
 -0.010000  0.380000  0.000000
 -0.010000  0.370000  0.000000
 -0.010000  0.360000  0.000000
 -0.010000  0.350000  0.000000
 -0.010000  0.340000  0.000000
 -0.010000  0.330000  0.000000
 -0.010000  0.320000  0.000000
 -0.010000  0.310000  0.000000
 -0.010000  0.300000  0.000000
 -0.010000  0.290000  0.000000
 -0.010000  0.280000  0.000000
 -0.010000  0.270000  0.000000
 -0.010000  0.260000  0.000000
 -0.010000  0.250000  0.000000
 -0.010000  0.240000  0.000000
 -0.010000  0.230000  0.000000
 -0.010000  0.220000  0.000000
 -0.010000  0.210000  0.000000
 -0.010000  0.200000  0.000000
 -0.010000  0.190000  0.000000
 -0.010000  0.180000  0.000000
 -0.010000  0.170000  0.000000
 -0.010000  0.160000  0.000000
 -0.010000  0.150000  0.000000
 -0.010000  0.140000  0.000000
 -0.010000  0.130000  0.000000
 -0.010000  0.120000  0.000000
 -0.010000  0.110000  0.000000
 -0.010000  0.100000  0.000000
 -0.010000  0.090000  0.000000
 -0.010000  0.080000  0.000000
 -0.010000  0.070000  0.000000
 -0.010000  0.060000  0.000000
 -0.010000  0.050000  0.000000
 -0.010000  0.040000  0.000000
 -0.010000  0.030000  0.000000
 -0.010000  0.020000  0.000000
 -0.010000  0.010000  0.000000
 -0.100000 -0.010000  0.000000
 -0.090000 -0.010000  0.000000
 -0.080000 -0.010000  0.000000
 -0.070000 -0.010000  0.000000
 -0.060000 -0.010000  0.000000
 -0.050000 -0.010000  0.000000
 -0.040000 -0.010000  0.000000
 -0.030000 -0.010000  0.000000
 -0.020000 -0.010000  0.000000
 -0.010000 -0.010000  0.000000
 -0.000000 -0.010000  0.000000
  0.010000 -0.010000  0.000000
  0.020000 -0.010000  0.000000
  0.030000 -0.010000  0.000000
  0.040000 -0.010000  0.000000
  0.050000 -0.010000  0.000000
  0.060000 -0.010000  0.000000