<?xml version="1.0" encoding="UTF-8"?>
<VTKFile type="UnstructuredGrid" version="1.0" byte_order="LittleEndian">
<UnstructuredGrid>
  <Piece NumberOfPoints="1542" NumberOfCells="1542">
      <PointData>
        <DataArray type="Int32" Name="Type" format="ascii">
 1 1 1 1 1 1 1 1 1 1
 1 1 1 1 1 1 1 1 1 1
 1 1 1 1 1 1 1 1 1 1
 1 1 1 1 1 1 1 1 1 1
 1 1 1 1 1 1 1 1 1 1
 1 1 1 1 1 1 1 1 1 1
 1 3 3 3 3 3 3 3 3 3
 3 3 3 3 3 3 3 3 3 3
 3 3 3 3 3 3 3 3 3 3
 3 3 3 3 3 3 3 3 3 3
 3 3 3 3 3 3 3 3 3 3
 3 3 3 3 3 3 3 3 3 3
 3 3 3 3 3 3 3 3 3 3
 1 1 1 1 1 1 1 1 1 1
 1 1 1 1 1 1 1 1 1 1
 1 1 1 1 1 1 1 1 1 1
 1 1 1 1 1 1 1 1 1 1
 1 1 1 1 1 1 1 1 1 1
 1 1 1 1 1 1 1 1 1 1
 1 2 2 2 2 2 2 2 2 2
 2 2 2 2 2 2 2 2 2 2
 2 2 2 2 2 2 2 2 2 2
 2 2 2 2 2 2 2 2 2 2
 2 2 2 2 2 2 2 2 2 2
 2 2 2 2 2 2 2 2 2 2
 2 2 2 2 2 2 2 2 2 2
 2 2 2 2 2 2 2 2 2 2
 2 2 2 2 2 2 2 2 2 2
 2 2 2 2 2 2 2 2 2 2
 2 2 2 2 2 2 2 2 2 2
 2 2 2 2 2 2 2 2 2 2
 2 2 2 2 2 2 2 2 2 2
 2 2 2 2 2 2 2 2 2 2
 2 2 2 2 2 2 2 2 2 2
 2 2 2 2 2 2 2 2 2 2
 2 2 2 2 2 2 2 2 2 2
 2 2 2 2 2 2 2 2 2 2
 2 2 2 2 2 2 2 2 2 2
 2 2 2 2 2 2 2 2 2 2
 2 2 2 2 2 2 2 2 2 2
 2 2 2 2 2 2 2 2 2 2
 2 2 2 2 2 2 2 2 2 2
 2 2 2 2 2 2 2 2 2 2
 2 2 2 2 2 2 2 2 2 2
 2 2 2 2 2 2 2 2 2 2
 2 2 2 2 2 2 2 2 2 2
 2 2 2 2 2 2 2 2 2 2
 2 2 2 2 2 2 2 2 2 2
 2 2 2 2 2 2 2 2 2 2
 2 2 2 2 2 2 2 2 2 2
 2 2 2 2 2 2 2 2 2 2
 2 2 2 2 2 2 2 2 2 2
 2 2 2 2 2 2 2 2 2 2
 2 2 2 2 2 2 2 2 2 2
 2 2 2 2 2 2 2 2 2 2
 2 2 2 2 2 2 2 2 2 2
 2 2 2 2 2 2 2 2 2 2
 2 2 2 2 2 2 2 2 2 2
 2 2 2 2 2 2 2 2 2 2
 2 2 2 2 2 2 2 2 2 2
 2 2 2 2 2 2 2 2 2 2
 2 2 2 2 2 2 2 2 2 2
 2 2 2 2 2 2 2 2 2 2
 2 2 2 2 2 2 2 2 2 2
 2 2 2 2 2 2 2 2 2 2
 2 2 2 2 2 2 2 2 2 2
 2 2 2 2 2 2 2 2 2 2
 2 2 2 2 2 2 2 2 2 2
 2 2 2 2 2 2 2 2 2 2
 2 2 2 2 2 2 2 2 2 2
 2 2 2 2 2 2 2 2 2 2
 2 2 2 2 2 2 2 2 2 2
 2 2 2 2 2 2 2 2 2 2
 2 2 2 2 2 2 2 2 2 2
 2 2 2 2 2 2 2 2 2 2
 2 2 2 2 2 2 2 2 2 2
 2 2 2 2 2 2 2 2 2 2
 2 2 2 2 2 2 2 2 0 0
 0 0 0 0 0 0 0 0 0 0
 0 0 0 0 0 0 0 0 0 0
 0 0 0 0 0 0 0 0 0 0
 0 0 0 0 0 0 0 0 0 0
 0 0 0 0 0 0 0 0 0 0
 0 0 0 0 0 0 0 0 0 0
 0 0 0 0 0 0 0 0 0 0
 0 0 0 0 0 0 0 0 0 0
 0 0 0 0 0 0 0 0 0 0
 0 0 0 0 0 0 0 0 0 0
 0 0 0 0 0 0 0 0 0 0
 0 0 0 0 0 0 0 0 0 0
 0 0 0 0 0 0 0 0 0 0
 0 0 0 0 0 0 0 0 0 0
 0 0 0 0 0 0 0 0 0 0
 0 0 0 0 0 0 0 0 0 0
 0 0 0 0 0 0 0 0 0 0
 0 0 0 0 0 0 0 0 0 0
 0 0 0 0 0 0 0 0 0 0
 0 0 0 0 0 0 0 0 0 0
 0 0 0 0 0 0 0 0 0 0
 0 0 0 0 0 0 0 0 0 0
 0 0 0 0 0 0 0 0 0 0
 0 0 0 0 0 0 0 0 0 0
 0 0 0 0 0 0 0 0 0 0
 0 0 0 0 0 0 0 0 0 0
 0 0 0 0 0 0 0 0 0 0
 0 0 0 0 0 0 0 0 0 0
 0 0 0 0 0 0 0 0 0 0
 0 0 0 0 0 0 0 0 0 0
 0 0 0 0 0 0 0 0 0 0
 0 0 0 0 0 0 0 0 0 0
 0 0 0 0 0 0 0 0 0 0
 0 0 0 0 0 0 0 0 0 0
 0 0 0 0 0 0 0 0 0 0
 0 0 0 0 0 0 0 0 0 0
 0 0 0 0 0 0 0 0 0 0
 0 0 0 0 0 0 0 0 0 0
 0 0 0 0 0 0 0 0 0 0
 0 0 0 0 0 0 0 0 0 0
 0 0 0 0 0 0 0 0 0 0
 0 0 0 0 0 0 0 0 0 0
 0 0 0 0 0 0 0 0 0 0
 0 0 0 0 0 0 0 0 0 0
 0 0 0 0 0 0 0 0 0 0
 0 0 0 0 0 0 0 0 0 0
 0 0 0 0 0 0 0 0 0 0
 0 0 0 0 0 0 0 0 0 0
 0 0 0 0 0 0 0 0 0 0
 0 0 0 0 0 0 0 0 0 0
 0 0 0 0 0 0 0 0 0 0
 0 0 0 0 0 0 0 0 0 0
 0 0 0 0 0 0 0 0 0 0
 0 0 0 0 0 0 0 0 0 0
 0 0 0 0 0 0 0 0 0 0
 0 0 0 0 0 0 0 0 0 0
 0 0 0 0 0 0 0 0 0 0
 0 0 0 0 0 0 0 0 0 0
 0 0 0 0 0 0 0 0 0 0
 0 0 0 0 0 0 0 0 0 0
 0 0 0 0 0 0 0 0 0 0
 0 0 0 0 0 0 0 0 0 0
 0 0 0 0 0 0 0 0 0 0
 0 0 0 0 0 0 0 0 0 0
 0 0 0 0 0 0 0 0 0 0
 0 0 0 0 0 0 0 0 0 0
 0 0 0 0 0 0 0 0 0 0
 0 0 0 0 0 0 0 0 0 0
 0 0 0 0 0 0 0 0 0 0
 0 0 0 0 0 0 0 0 0 0
 0 0 0 0 0 0 0 0 0 0
 0 0 0 0 0 0 0 0 0 0
 0 0 0 0 0 0 0 0 0 0
 0 0 0 0 0 0 0 0 0 0
 0 0 0 0 0 0 0 0 0 0
 0 0 0 0 0 0 0 0 0 0
 0 0
        </DataArray>
      </PointData>
      <Points>
        <DataArray type="Float32" NumberOfComponents="3" format="ascii">
  0.000000  0.500000  0.000000
  0.000000  0.490000  0.000000
  0.000000  0.480000  0.000000
  0.000000  0.470000  0.000000
  0.000000  0.460000  0.000000
  0.000000  0.450000  0.000000
  0.000000  0.440000  0.000000
  0.000000  0.430000  0.000000
  0.000000  0.420000  0.000000
  0.000000  0.410000  0.000000
  0.000000  0.400000  0.000000
  0.000000  0.390000  0.000000
  0.000000  0.380000  0.000000
  0.000000  0.370000  0.000000
  0.000000  0.360000  0.000000
  0.000000  0.350000  0.000000
  0.000000  0.340000  0.000000
  0.000000  0.330000  0.000000
  0.000000  0.320000  0.000000
  0.000000  0.310000  0.000000
  0.000000  0.300000  0.000000
  0.000000  0.290000  0.000000
  0.000000  0.280000  0.000000
  0.000000  0.270000  0.000000
  0.000000  0.260000  0.000000
  0.000000  0.250000  0.000000
  0.000000  0.240000  0.000000
  0.000000  0.230000  0.000000
  0.000000  0.220000  0.000000
  0.000000  0.210000  0.000000
  0.000000  0.200000  0.000000
  0.000000  0.190000  0.000000
  0.000000  0.180000  0.000000
  0.000000  0.170000  0.000000
  0.000000  0.160000  0.000000
  0.000000  0.150000  0.000000
  0.000000  0.140000  0.000000
  0.000000  0.130000  0.000000
  0.000000  0.120000  0.000000
  0.000000  0.110000  0.000000
  0.000000  0.100000  0.000000
  0.000000  0.090000  0.000000
  0.000000  0.080000  0.000000
  0.000000  0.070000  0.000000
  0.000000  0.060000  0.000000
  0.000000  0.050000  0.000000
  0.000000  0.040000  0.000000
  0.000000  0.030000  0.000000
  0.000000  0.020000  0.000000
  0.000000  0.010000  0.000000
 -0.100000  0.000000  0.000000
 -0.090000  0.000000  0.000000
 -0.080000  0.000000  0.000000
 -0.070000  0.000000  0.000000
 -0.060000  0.000000  0.000000
 -0.050000  0.000000  0.000000
 -0.040000  0.000000  0.000000
 -0.030000  0.000000  0.000000
 -0.020000  0.000000  0.000000
 -0.010000  0.000000  0.000000
 -0.000000  0.000000  0.000000
  0.010000  0.000000  0.000000
  0.020000  0.000000  0.000000
  0.030000  0.000000  0.000000
  0.040000  0.000000  0.000000
  0.050000  0.000000  0.000000
  0.060000  0.000000  0.000000
  0.070000  0.000000  0.000000
  0.080000  0.000000  0.000000
  0.090000  0.000000  0.000000
  0.100000  0.000000  0.000000
  0.110000  0.000000  0.000000
  0.120000  0.000000  0.000000
  0.130000  0.000000  0.000000
  0.140000  0.000000  0.000000
  0.150000  0.000000  0.000000
  0.160000  0.000000  0.000000
  0.170000  0.000000  0.000000
  0.180000  0.000000  0.000000
  0.190000  0.000000  0.000000
  0.200000  0.000000  0.000000
  0.210000  0.000000  0.000000
  0.220000  0.000000  0.000000
  0.230000  0.000000  0.000000
  0.240000  0.000000  0.000000
  0.250000  0.000000  0.000000
  0.260000  0.000000  0.000000
  0.270000  0.000000  0.000000
  0.280000  0.000000  0.000000
  0.290000  0.000000  0.000000
  0.300000  0.000000  0.000000
  0.310000  0.000000  0.000000
  0.320000  0.000000  0.000000
  0.330000  0.000000  0.000000
  0.340000  0.000000  0.000000
  0.350000  0.000000  0.000000
  0.360000  0.000000  0.000000
  0.370000  0.000000  0.000000
  0.380000  0.000000  0.000000
  0.390000  0.000000  0.000000
  0.400000  0.000000  0.000000
  0.410000  0.000000  0.000000
  0.420000  0.000000  0.000000
  0.430000  0.000000  0.000000
  0.440000  0.000000  0.000000
  0.450000  0.000000  0.000000
  0.460000  0.000000  0.000000
  0.470000  0.000000  0.000000
  0.480000  0.000000  0.000000
  0.490000  0.000000  0.000000
  0.500000  0.000000  0.000000
  0.510000  0.000000  0.000000
  0.520000  0.000000  0.000000
  0.530000  0.000000  0.000000
  0.540000  0.000000  0.000000
  0.550000  0.000000  0.000000
  0.560000  0.000000  0.000000
  0.570000  0.000000  0.000000
  0.580000  0.000000  0.000000
  0.590000  0.000000  0.000000
  0.600000  0.000000  0.000000
  0.610000  0.000000  0.000000
  0.620000  0.000000  0.000000
  0.630000  0.000000  0.000000
  0.640000  0.000000  0.000000
  0.650000  0.000000  0.000000
  0.660000  0.000000  0.000000
  0.670000  0.000000  0.000000
  0.680000  0.000000  0.000000
  0.690000  0.000000  0.000000
  0.700000  0.000000  0.000000
  0.710000  0.000000  0.000000
  0.720000  0.000000  0.000000
  0.730000  0.000000  0.000000
  0.740000  0.000000  0.000000
  0.750000  0.000000  0.000000
  0.760000  0.000000  0.000000
  0.770000  0.000000  0.000000
  0.780000  0.000000  0.000000
  0.790000  0.000000  0.000000
  0.800000  0.000000  0.000000
  0.700000  0.010000  0.000000
  0.700000  0.020000  0.000000
  0.700000  0.030000  0.000000
  0.700000  0.040000  0.000000
  0.700000  0.050000  0.000000
  0.700000  0.060000  0.000000
  0.700000  0.070000  0.000000
  0.700000  0.080000  0.000000
  0.700000  0.090000  0.000000
  0.700000  0.100000  0.000000
  0.700000  0.110000  0.000000
  0.700000  0.120000  0.000000
  0.700000  0.130000  0.000000
  0.700000  0.140000  0.000000
  0.700000  0.150000  0.000000
  0.700000  0.160000  0.000000
  0.700000  0.170000  0.000000
  0.700000  0.180000  0.000000
  0.700000  0.190000  0.000000
  0.700000  0.200000  0.000000
  0.700000  0.210000  0.000000
  0.700000  0.220000  0.000000
  0.700000  0.230000  0.000000
  0.700000  0.240000  0.000000
  0.700000  0.250000  0.000000
  0.700000  0.260000  0.000000
  0.700000  0.270000  0.000000
  0.700000  0.280000  0.000000
  0.700000  0.290000  0.000000
  0.700000  0.300000  0.000000
  0.700000  0.310000  0.000000
  0.700000  0.320000  0.000000
  0.700000  0.330000  0.000000
  0.700000  0.340000  0.000000
  0.700000  0.350000  0.000000
  0.700000  0.360000  0.000000
  0.700000  0.370000  0.000000
  0.700000  0.380000  0.000000
  0.700000  0.390000  0.000000
  0.700000  0.400000  0.000000
  0.700000  0.410000  0.000000
  0.700000  0.420000  0.000000
  0.700000  0.430000  0.000000
  0.700000  0.440000  0.000000
  0.700000  0.450000  0.000000
  0.700000  0.460000  0.000000
  0.700000  0.470000  0.000000
  0.700000  0.480000  0.000000
  0.700000  0.490000  0.000000
  0.700000  0.500000  0.000000
  0.021489  0.009597  0.000000
  0.025181  0.014787  0.000000
  0.047693  0.015995  0.000000
  0.010103  0.009863  0.000000
  0.058065  0.021177  0.000000
  0.010132  0.018699  0.000000
  0.069103  0.026229  0.000000
  0.063987  0.011216  0.000000
  0.101315  0.025130  0.000000
  0.081742  0.026571  0.000000
  0.089580  0.031778  0.000000
  0.012733  0.026011  0.000000
  0.028605  0.035724  0.000000
  0.009375  0.034592  0.000000
  0.013893  0.042637  0.000000
  0.022027  0.042964  0.000000
  0.055539  0.047543  0.000000
  0.007925  0.050310  0.000000
  0.053180  0.044228  0.000000
  0.013535  0.058729  0.000000
  0.025484  0.050365  0.000000
  0.020735  0.067342  0.000000
  0.010246  0.065340  0.000000
  0.015628  0.082044  0.000000
  0.010244  0.077537  0.000000
  0.038130  0.075890  0.000000
  0.018617  0.088071  0.000000
  0.022970  0.082156  0.000000
  0.027889  0.070499  0.000000
  0.044527  0.086381  0.000000
  0.054320  0.008357  0.000000
  0.035359  0.008481  0.000000
  0.071793  0.010863  0.000000
  0.072838  0.020096  0.000000
  0.098463  0.008886  0.000000
  0.109681  0.016034  0.000000
  0.123613  0.008347  0.000000
  0.082259  0.008579  0.000000
  0.100013  0.023990  0.000000
  0.086344  0.019378  0.000000
  0.055187  0.034744  0.000000
  0.041678  0.013720  0.000000
  0.082691  0.039289  0.000000
  0.035996  0.024370  0.000000
  0.064507  0.036840  0.000000
  0.021630  0.030389  0.000000
  0.025905  0.022742  0.000000
  0.040907  0.027947  0.000000
  0.070176  0.045801  0.000000
  0.036816  0.041206  0.000000
  0.076449  0.049690  0.000000
  0.043566  0.035763  0.000000
  0.023648  0.058066  0.000000
  0.040904  0.059725  0.000000
  0.033777  0.067973  0.000000
  0.051172  0.072129  0.000000
  0.036063  0.053831  0.000000
  0.047813  0.066483  0.000000
  0.049555  0.081644  0.000000
  0.065411  0.080727  0.000000
  0.159518  0.008279  0.000000
  0.108723  0.009714  0.000000
  0.144491  0.010541  0.000000
  0.119229  0.020476  0.000000
  0.138541  0.010130  0.000000
  0.181376  0.008162  0.000000
  0.212945  0.011538  0.000000
  0.155425  0.022136  0.000000
  0.121037  0.027812  0.000000
  0.090745  0.014209  0.000000
  0.138049  0.025634  0.000000
  0.125509  0.014484  0.000000
  0.104056  0.038785  0.000000
  0.110048  0.061465  0.000000
  0.138138  0.047020  0.000000
  0.054664  0.025561  0.000000
  0.088683  0.043540  0.000000
  0.072674  0.035350  0.000000
  0.063757  0.054807  0.000000
  0.041122  0.048458  0.000000
  0.084387  0.055129  0.000000
  0.077298  0.067236  0.000000
  0.072044  0.060135  0.000000
  0.054602  0.060172  0.000000
  0.069068  0.070949  0.000000
  0.061006  0.064210  0.000000
  0.067525  0.081992  0.000000
  0.078685  0.096227  0.000000
  0.082794  0.075499  0.000000
  0.053401  0.087212  0.000000
  0.201742  0.010987  0.000000
  0.172003  0.012268  0.000000
  0.215784  0.013119  0.000000
  0.176167  0.016519  0.000000
  0.206649  0.038101  0.000000
  0.193849  0.011035  0.000000
  0.188638  0.034182  0.000000
  0.192486  0.018065  0.000000
  0.168904  0.029917  0.000000
  0.113747  0.029750  0.000000
  0.182728  0.030237  0.000000
  0.136224  0.020407  0.000000
  0.150387  0.033783  0.000000
  0.097425  0.038790  0.000000
  0.103208  0.052913  0.000000
  0.159279  0.014047  0.000000
  0.114368  0.039708  0.000000
  0.130409  0.034418  0.000000
  0.114629  0.045115  0.000000
  0.119387  0.054917  0.000000
  0.142518  0.049795  0.000000
  0.098302  0.051346  0.000000
  0.088436  0.058677  0.000000
  0.123921  0.061160  0.000000
  0.101320  0.064161  0.000000
  0.084526  0.075840  0.000000
  0.097383  0.086405  0.000000
  0.094569  0.066120  0.000000
  0.085404  0.090231  0.000000
  0.105667  0.080597  0.000000
  0.246604  0.013408  0.000000
  0.229094  0.014208  0.000000
  0.231644  0.009233  0.000000
  0.208113  0.023472  0.000000
  0.288368  0.016081  0.000000
  0.203761  0.027741  0.000000
  0.195675  0.024636  0.000000
  0.220162  0.023385  0.000000
  0.179226  0.023967  0.000000
  0.237043  0.032619  0.000000
  0.164085  0.026902  0.000000
  0.216819  0.032328  0.000000
  0.198984  0.040809  0.000000
  0.181328  0.041823  0.000000
  0.193302  0.054895  0.000000
  0.148195  0.021535  0.000000
  0.166254  0.037552  0.000000
  0.138109  0.035900  0.000000
  0.160792  0.053258  0.000000
  0.126932  0.040828  0.000000
  0.125828  0.051110  0.000000
  0.149607  0.045143  0.000000
  0.137580  0.061997  0.000000
  0.095240  0.076697  0.000000
  0.137495  0.077665  0.000000
  0.113660  0.068670  0.000000
  0.123876  0.071915  0.000000
  0.153025  0.079975  0.000000
  0.131411  0.084958  0.000000
  0.111136  0.076960  0.000000
  0.288040  0.010191  0.000000
  0.262661  0.011957  0.000000
  0.316105  0.016711  0.000000
  0.287015  0.031066  0.000000
  0.334159  0.012804  0.000000
  0.291995  0.035529  0.000000
  0.305710  0.010942  0.000000
  0.273037  0.010489  0.000000
  0.277709  0.017526  0.000000
  0.303233  0.023317  0.000000
  0.253667  0.023022  0.000000
  0.265447  0.016528  0.000000
  0.250681  0.010085  0.000000
  0.221131  0.041062  0.000000
  0.199310  0.052189  0.000000
  0.211121  0.046588  0.000000
  0.153620  0.037246  0.000000
  0.236610  0.039238  0.000000
  0.166117  0.046365  0.000000
  0.191064  0.044406  0.000000
  0.174504  0.045859  0.000000
  0.181197  0.054638  0.000000
  0.135111  0.062301  0.000000
  0.169090  0.071987  0.000000
  0.162415  0.065179  0.000000
  0.157793  0.055187  0.000000
  0.151322  0.067036  0.000000
  0.147457  0.062430  0.000000
  0.123156  0.083510  0.000000
  0.149385  0.076166  0.000000
  0.362208  0.014531  0.000000
  0.299314  0.012408  0.000000
  0.316951  0.011567  0.000000
  0.294806  0.024578  0.000000
  0.401531  0.022598  0.000000
  0.343033  0.012888  0.000000
  0.383923  0.013806  0.000000
  0.328139  0.011173  0.000000
  0.330763  0.022758  0.000000
  0.307269  0.030104  0.000000
  0.318419  0.025020  0.000000
  0.324302  0.033905  0.000000
  0.276240  0.025221  0.000000
  0.233946  0.020459  0.000000
  0.243220  0.021317  0.000000
  0.225932  0.028986  0.000000
  0.227696  0.042392  0.000000
  0.261447  0.034197  0.000000
  0.217673  0.058112  0.000000
  0.212823  0.052515  0.000000
  0.227236  0.053695  0.000000
  0.204016  0.064503  0.000000
  0.177860  0.058171  0.000000
  0.199330  0.064401  0.000000
  0.188268  0.068695  0.000000
  0.185789  0.088445  0.000000
  0.181229  0.088466  0.000000
  0.176971  0.065175  0.000000
  0.167721  0.077629  0.000000
  0.163735  0.078712  0.000000
  0.391546  0.010533  0.000000
  0.379541  0.014331  0.000000
  0.429008  0.028142  0.000000
  0.402138  0.010788  0.000000
  0.467741  0.027363  0.000000
  0.424380  0.012403  0.000000
  0.428437  0.021248  0.000000
  0.395935  0.022920  0.000000
  0.408693  0.013545  0.000000
  0.388405  0.026017  0.000000
  0.369906  0.009797  0.000000
  0.351886  0.009085  0.000000
  0.349441  0.021571  0.000000
  0.299875  0.038155  0.000000
  0.308698  0.047036  0.000000
  0.258609  0.028435  0.000000
  0.245884  0.032687  0.000000
  0.293283  0.051210  0.000000
  0.273444  0.031358  0.000000
  0.287737  0.045253  0.000000
  0.242565  0.053604  0.000000
  0.247467  0.044380  0.000000
  0.255410  0.051795  0.000000
  0.215035  0.067632  0.000000
  0.234005  0.053210  0.000000
  0.224014  0.065992  0.000000
  0.220400  0.075904  0.000000
  0.202864  0.078212  0.000000
  0.188659  0.072181  0.000000
  0.204746  0.078013  0.000000
  0.478740  0.011755  0.000000
  0.453760  0.011818  0.000000
  0.484753  0.016680  0.000000
  0.459794  0.011279  0.000000
  0.508581  0.028975  0.000000
  0.469820  0.012757  0.000000
  0.485663  0.032514  0.000000
  0.436553  0.014005  0.000000
  0.438177  0.010385  0.000000
  0.441440  0.029525  0.000000
  0.378505  0.028170  0.000000
  0.390649  0.035148  0.000000
  0.360048  0.032997  0.000000
  0.374474  0.029197  0.000000
  0.365843  0.018368  0.000000
  0.313696  0.034362  0.000000
  0.334703  0.027451  0.000000
  0.316272  0.052471  0.000000
  0.340489  0.049566  0.000000
  0.302773  0.049398  0.000000
  0.276445  0.038431  0.000000
  0.268998  0.043653  0.000000
  0.259065  0.052790  0.000000
  0.254907  0.039919  0.000000
  0.268265  0.052571  0.000000
  0.240446  0.071106  0.000000
  0.236567  0.065441  0.000000
  0.236452  0.075413  0.000000
  0.252703  0.070995  0.000000
  0.212692  0.079209  0.000000
  0.559888  0.017903  0.000000
  0.480898  0.031459  0.000000
  0.569938  0.014343  0.000000
  0.539884  0.011890  0.000000
  0.587106  0.030946  0.000000
  0.527991  0.010311  0.000000
  0.574460  0.026245  0.000000
  0.510788  0.018177  0.000000
  0.493355  0.025353  0.000000
  0.448380  0.018091  0.000000
  0.453471  0.039395  0.000000
  0.441147  0.033007  0.000000
  0.362690  0.028757  0.000000
  0.418383  0.010845  0.000000
  0.413168  0.023066  0.000000
  0.416198  0.027821  0.000000
  0.349462  0.039212  0.000000
  0.349020  0.021270  0.000000
  0.343445  0.036024  0.000000
  0.321045  0.040651  0.000000
  0.336035  0.036126  0.000000
  0.301890  0.063756  0.000000
  0.327365  0.049551  0.000000
  0.282844  0.054614  0.000000
  0.314922  0.070985  0.000000
  0.293954  0.063823  0.000000
  0.277914  0.049784  0.000000
  0.270766  0.064911  0.000000
  0.245464  0.061082  0.000000
  0.256676  0.067985  0.000000
  0.601487  0.030931  0.000000
  0.554086  0.028828  0.000000
  0.640021  0.012882  0.000000
  0.582903  0.011016  0.000000
  0.629044  0.022361  0.000000
  0.582188  0.014738  0.000000
  0.603301  0.012268  0.000000
  0.594349  0.012697  0.000000
  0.551706  0.009864  0.000000
  0.511926  0.012816  0.000000
  0.547929  0.016297  0.000000
  0.470731  0.019101  0.000000
  0.497785  0.016340  0.000000
  0.509723  0.046271  0.000000
  0.479402  0.051723  0.000000
  0.422136  0.033988  0.000000
  0.429859  0.041231  0.000000
  0.404187  0.037346  0.000000
  0.393680  0.041252  0.000000
  0.379018  0.064171  0.000000
  0.381026  0.054122  0.000000
  0.364655  0.049157  0.000000
  0.333565  0.047511  0.000000
  0.342392  0.072462  0.000000
  0.310784  0.057937  0.000000
  0.290588  0.064381  0.000000
  0.325321  0.075172  0.000000
  0.279207  0.067670  0.000000
  0.277019  0.071672  0.000000
  0.263562  0.070620  0.000000
  0.658687  0.029748  0.000000
  0.644579  0.012841  0.000000
  0.661504  0.038047  0.000000
  0.656079  0.012468  0.000000
  0.668005  0.011409  0.000000
  0.653692  0.015614  0.000000
  0.631413  0.012522  0.000000
  0.617194  0.014914  0.000000
  0.623337  0.011276  0.000000
  0.603342  0.030987  0.000000
  0.592197  0.018119  0.000000
  0.566213  0.011471  0.000000
  0.544702  0.027444  0.000000
  0.537572  0.018923  0.000000
  0.489722  0.011507  0.000000
  0.493594  0.037963  0.000000
  0.470653  0.038827  0.000000
  0.477332  0.040183  0.000000
  0.465114  0.051781  0.000000
  0.461714  0.039026  0.000000
  0.420386  0.047476  0.000000
  0.434965  0.042029  0.000000
  0.378246  0.043437  0.000000
  0.381246  0.042130  0.000000
  0.367625  0.039817  0.000000
  0.343417  0.059708  0.000000
  0.317847  0.070222  0.000000
  0.329339  0.064221  0.000000
  0.324406  0.059018  0.000000
  0.304361  0.071518  0.000000
  0.675821  0.036266  0.000000
  0.664088  0.109504  0.000000
  0.684008  0.053160  0.000000
  0.682069  0.021502  0.000000
  0.670209  0.090847  0.000000
  0.669358  0.044051  0.000000
  0.671145  0.054829  0.000000
  0.664106  0.056869  0.000000
  0.649653  0.027543  0.000000
  0.638042  0.032794  0.000000
  0.635676  0.028190  0.000000
  0.609089  0.011747  0.000000
  0.590451  0.054585  0.000000
  0.607476  0.058226  0.000000
  0.532665  0.037068  0.000000
  0.561232  0.058484  0.000000
  0.526144  0.024731  0.000000
  0.525027  0.013770  0.000000
  0.502892  0.010699  0.000000
  0.559039  0.042391  0.000000
  0.501400  0.030851  0.000000
  0.486461  0.058454  0.000000
  0.452750  0.022825  0.000000
  0.435912  0.064764  0.000000
  0.426967  0.054246  0.000000
  0.396469  0.055178  0.000000
  0.368541  0.054926  0.000000
  0.356331  0.044058  0.000000
  0.352144  0.052483  0.000000
  0.343125  0.064827  0.000000
  0.688226  0.090871  0.000000
  0.662605  0.106264  0.000000
  0.687729  0.030724  0.000000
  0.681791  0.051234  0.000000
  0.651583  0.169277  0.000000
  0.668716  0.012929  0.000000
  0.683145  0.094115  0.000000
  0.684110  0.109709  0.000000
  0.655416  0.094001  0.000000
  0.668683  0.124461  0.000000
  0.673335  0.062707  0.000000
  0.654458  0.088884  0.000000
  0.652895  0.043101  0.000000
  0.651690  0.110726  0.000000
  0.634639  0.048836  0.000000
  0.622996  0.029238  0.000000
  0.630395  0.072954  0.000000
  0.595159  0.042243  0.000000
  0.612508  0.045487  0.000000
  0.569830  0.028953  0.000000
  0.539690  0.033402  0.000000
  0.521253  0.025346  0.000000
  0.512833  0.055339  0.000000
  0.451610  0.063463  0.000000
  0.450021  0.046039  0.000000
  0.444050  0.062992  0.000000
  0.403306  0.046227  0.000000
  0.399434  0.058923  0.000000
  0.366695  0.062588  0.000000
  0.356453  0.061801  0.000000
  0.689844  0.084846  0.000000
  0.660046  0.198746  0.000000
  0.655694  0.158885  0.000000
  0.676254  0.157185  0.000000
  0.684066  0.196404  0.000000
  0.686956  0.070584  0.000000
  0.680859  0.013541  0.000000
  0.648129  0.161829  0.000000
  0.673303  0.144913  0.000000
  0.682458  0.073680  0.000000
  0.687088  0.145484  0.000000
  0.672429  0.031167  0.000000
  0.689758  0.021723  0.000000
  0.674681  0.071844  0.000000
  0.647404  0.033872  0.000000
  0.669804  0.092815  0.000000
  0.647185  0.054761  0.000000
  0.626010  0.037569  0.000000
  0.635628  0.057154  0.000000
  0.611908  0.024165  0.000000
  0.614536  0.031340  0.000000
  0.560107  0.045815  0.000000
  0.539527  0.067691  0.000000
  0.519069  0.042192  0.000000
  0.508505  0.037540  0.000000
  0.526063  0.048960  0.000000
  0.461121  0.029139  0.000000
  0.445731  0.043990  0.000000
  0.408704  0.037253  0.000000
  0.405538  0.058251  0.000000
  0.685145  0.126451  0.000000
  0.685900  0.038360  0.000000
  0.684474  0.220398  0.000000
  0.685148  0.323096  0.000000
  0.690223  0.064141  0.000000
  0.687177  0.009812  0.000000
  0.662708  0.229312  0.000000
  0.685211  0.242077  0.000000
  0.691134  0.045850  0.000000
  0.689717  0.126112  0.000000
  0.681873  0.196215  0.000000
  0.678851  0.117506  0.000000
  0.685520  0.173248  0.000000
  0.642408  0.201467  0.000000
  0.646335  0.191229  0.000000
  0.668959  0.152766  0.000000
  0.639963  0.138630  0.000000
  0.666924  0.025819  0.000000
  0.660707  0.070330  0.000000
  0.648253  0.078906  0.000000
  0.656978  0.050159  0.000000
  0.627350  0.045465  0.000000
  0.606024  0.053687  0.000000
  0.621687  0.056418  0.000000
  0.552314  0.051716  0.000000
  0.540305  0.045722  0.000000
  0.521525  0.034984  0.000000
  0.467627  0.056633  0.000000
  0.455367  0.058733  0.000000
  0.413609  0.053755  0.000000
  0.660687  0.300214  0.000000
  0.601872  0.343271  0.000000
  0.670408  0.183363  0.000000
  0.632664  0.259552  0.000000
  0.569056  0.402558  0.000000
  0.651766  0.266530  0.000000
  0.680608  0.250232  0.000000
  0.689741  0.267190  0.000000
  0.650019  0.335498  0.000000
  0.652651  0.241729  0.000000
  0.681632  0.138640  0.000000
  0.680317  0.202505  0.000000
  0.666477  0.205316  0.000000
  0.620706  0.172909  0.000000
  0.668865  0.200300  0.000000
  0.684144  0.177683  0.000000
  0.668096  0.154215  0.000000
  0.690281  0.149468  0.000000
  0.677360  0.180175  0.000000
  0.671003  0.110457  0.000000
  0.666388  0.126994  0.000000
  0.636628  0.097725  0.000000
  0.642649  0.046418  0.000000
  0.659275  0.068914  0.000000
  0.595760  0.050360  0.000000
  0.574657  0.057636  0.000000
  0.559830  0.027633  0.000000
  0.543174  0.041558  0.000000
  0.486397  0.049446  0.000000
  0.427980  0.056627  0.000000
  0.647569  0.250416  0.000000
  0.523013  0.486273  0.000000
  0.659807  0.290238  0.000000
  0.683150  0.215415  0.000000
  0.656224  0.334460  0.000000
  0.687653  0.168632  0.000000
  0.690458  0.111708  0.000000
  0.672640  0.284860  0.000000
  0.662656  0.317543  0.000000
  0.682476  0.358191  0.000000
  0.572065  0.281920  0.000000
  0.638065  0.210648  0.000000
  0.589139  0.308180  0.000000
  0.637357  0.275923  0.000000
  0.681905  0.236431  0.000000
  0.665505  0.259793  0.000000
  0.670903  0.223639  0.000000
  0.648273  0.212555  0.000000
  0.671845  0.130463  0.000000
  0.681658  0.214520  0.000000
  0.664404  0.232661  0.000000
  0.632907  0.148651  0.000000
  0.653914  0.117424  0.000000
  0.674111  0.084047  0.000000
  0.646605  0.102336  0.000000
  0.651185  0.060272  0.000000
  0.618424  0.051255  0.000000
  0.591365  0.032635  0.000000
  0.530564  0.050853  0.000000
  0.501196  0.049531  0.000000
  0.537103  0.491898  0.000000
  0.622826  0.463965  0.000000
  0.672773  0.283178  0.000000
  0.501819  0.480955  0.000000
  0.609348  0.331676  0.000000
  0.623799  0.477373  0.000000
  0.629139  0.452483  0.000000
  0.654602  0.417061  0.000000
  0.655780  0.425448  0.000000
  0.620412  0.277289  0.000000
  0.674032  0.287536  0.000000
  0.632596  0.330293  0.000000
  0.678491  0.267124  0.000000
  0.680953  0.302358  0.000000
  0.625631  0.190094  0.000000
  0.639047  0.226392  0.000000
  0.626310  0.205898  0.000000
  0.683559  0.102845  0.000000
  0.660870  0.177796  0.000000
  0.650144  0.130479  0.000000
  0.654210  0.140368  0.000000
  0.666263  0.078395  0.000000
  0.646518  0.074630  0.000000
  0.634347  0.064198  0.000000
  0.576586  0.035035  0.000000
  0.573496  0.043205  0.000000
  0.540890  0.469394  0.000000
  0.663122  0.485026  0.000000
  0.471569  0.476060  0.000000
  0.659326  0.432821  0.000000
  0.664951  0.474099  0.000000
  0.663547  0.420449  0.000000
  0.629787  0.300518  0.000000
  0.673937  0.372770  0.000000
  0.613548  0.324665  0.000000
  0.610073  0.294784  0.000000
  0.645840  0.314166  0.000000
  0.648792  0.280907  0.000000
  0.637356  0.270384  0.000000
  0.639139  0.238018  0.000000
  0.652694  0.173841  0.000000
  0.643806  0.153700  0.000000
  0.633458  0.164929  0.000000
  0.653284  0.121964  0.000000
  0.640326  0.072333  0.000000
  0.648207  0.089049  0.000000
  0.578362  0.046674  0.000000
 -0.010000  0.500000  0.000000
 -0.010000  0.490000  0.000000
 -0.010000  0.480000  0.000000
 -0.010000  0.470000  0.000000
 -0.010000  0.460000  0.000000
 -0.010000  0.450000  0.000000
 -0.010000  0.440000  0.000000
 -0.010000  0.430000  0.000000
 -0.010000  0.420000  0.000000
 -0.010000  0.410000  0.000000
 -0.010000  0.400000  0.000000
 -0.010000  0.390000  0.000000
 -0.010000  0.380000  0.000000
 -0.010000  0.370000  0.000000
 -0.010000  0.360000  0.000000
 -0.010000  0.350000  0.000000
 -0.010000  0.340000  0.000000
 -0.010000  0.330000  0.000000
 -0.010000  0.320000  0.000000
 -0.010000  0.310000  0.000000
 -0.010000  0.300000  0.000000
 -0.010000  0.290000  0.000000
 -0.010000  0.280000  0.000000
 -0.010000  0.270000  0.000000
 -0.010000  0.260000  0.000000
 -0.010000  0.250000  0.000000
 -0.010000  0.240000  0.000000
 -0.010000  0.230000  0.000000
 -0.010000  0.220000  0.000000
 -0.010000  0.210000  0.000000
 -0.010000  0.200000  0.000000
 -0.010000  0.190000  0.000000
 -0.010000  0.180000  0.000000
 -0.010000  0.170000  0.000000
 -0.010000  0.160000  0.000000
 -0.010000  0.150000  0.000000
 -0.010000  0.140000  0.000000
 -0.010000  0.130000  0.000000
 -0.010000  0.120000  0.000000
 -0.010000  0.110000  0.000000
 -0.010000  0.100000  0.000000
 -0.010000  0.090000  0.000000
 -0.010000  0.080000  0.000000
 -0.010000  0.070000  0.000000
 -0.010000  0.060000  0.000000
 -0.010000  0.050000  0.000000
 -0.010000  0.040000  0.000000
 -0.010000  0.030000  0.000000
 -0.010000  0.020000  0.000000
 -0.010000  0.010000  0.000000
 -0.100000 -0.010000  0.000000
 -0.090000 -0.010000  0.000000
 -0.080000 -0.010000  0.000000
 -0.070000 -0.010000  0.000000
 -0.060000 -0.010000  0.000000
 -0.050000 -0.010000  0.000000
 -0.040000 -0.010000  0.000000
 -0.030000 -0.010000  0.000000
 -0.020000 -0.010000  0.000000
 -0.010000 -0.010000  0.000000
 -0.000000 -0.010000  0.000000
  0.010000 -0.010000  0.000000
  0.020000 -0.010000  0.000000
  0.030000 -0.010000  0.000000
  0.040000 -0.010000  0.000000
  0.050000 -0.010000  0.000000
  0.060000 -0.010000  0.000000
  0.070000 -0.010000  0.000000
  0.080000 -0.010000  0.000000
  0.090000 -0.010000  0.000000
  0.100000 -0.010000  0.000000
  0.110000 -0.010000  0.000000