<?xml version="1.0" encoding="UTF-8"?>
<VTKFile type="UnstructuredGrid" version="1.0" byte_order="LittleEndian">
<UnstructuredGrid>
  <Piece NumberOfPoints="1554" NumberOfCells="1554">
      <PointData>
        <DataArray type="Int32" Name="Type" format="ascii">
 1 1 1 1 1 1 1 1 1 1
 1 1 1 1 1 1 1 1 1 1
 1 1 1 1 1 1 1 1 1 1
 1 1 1 1 1 1 1 1 1 1
 1 1 1 1 1 1 1 1 1 1
 1 1 1 1 1 1 1 1 1 1
 1 3 3 3 3 3 3 3 3 3
 3 3 3 3 3 3 3 3 3 3
 3 3 3 3 3 3 3 3 3 3
 3 3 3 3 3 3 3 3 3 3
 3 3 3 3 3 3 3 3 3 3
 3 3 3 3 3 3 3 3 3 3
 3 3 3 3 3 3 3 3 3 3
 1 1 1 1 1 1 1 1 1 1
 1 1 1 1 1 1 1 1 1 1
 1 1 1 1 1 1 1 1 1 1
 1 1 1 1 1 1 1 1 1 1
 1 1 1 1 1 1 1 1 1 1
 1 1 1 1 1 1 1 1 1 1
 1 2 2 2 2 2 2 2 2 2
 2 2 2 2 2 2 2 2 2 2
 2 2 2 2 2 2 2 2 2 2
 2 2 2 2 2 2 2 2 2 2
 2 2 2 2 2 2 2 2 2 2
 2 2 2 2 2 2 2 2 2 2
 2 2 2 2 2 2 2 2 2 2
 2 2 2 2 2 2 2 2 2 2
 2 2 2 2 2 2 2 2 2 2
 2 2 2 2 2 2 2 2 2 2
 2 2 2 2 2 2 2 2 2 2
 2 2 2 2 2 2 2 2 2 2
 2 2 2 2 2 2 2 2 2 2
 2 2 2 2 2 2 2 2 2 2
 2 2 2 2 2 2 2 2 2 2
 2 2 2 2 2 2 2 2 2 2
 2 2 2 2 2 2 2 2 2 2
 2 2 2 2 2 2 2 2 2 2
 2 2 2 2 2 2 2 2 2 2
 2 2 2 2 2 2 2 2 2 2
 2 2 2 2 2 2 2 2 2 2
 2 2 2 2 2 2 2 2 2 2
 2 2 2 2 2 2 2 2 2 2
 2 2 2 2 2 2 2 2 2 2
 2 2 2 2 2 2 2 2 2 2
 2 2 2 2 2 2 2 2 2 2
 2 2 2 2 2 2 2 2 2 2
 2 2 2 2 2 2 2 2 2 2
 2 2 2 2 2 2 2 2 2 2
 2 2 2 2 2 2 2 2 2 2
 2 2 2 2 2 2 2 2 2 2
 2 2 2 2 2 2 2 2 2 2
 2 2 2 2 2 2 2 2 2 2
 2 2 2 2 2 2 2 2 2 2
 2 2 2 2 2 2 2 2 2 2
 2 2 2 2 2 2 2 2 2 2
 2 2 2 2 2 2 2 2 2 2
 2 2 2 2 2 2 2 2 2 2
 2 2 2 2 2 2 2 2 2 2
 2 2 2 2 2 2 2 2 2 2
 2 2 2 2 2 2 2 2 2 2
 2 2 2 2 2 2 2 2 2 2
 2 2 2 2 2 2 2 2 2 2
 2 2 2 2 2 2 2 2 2 2
 2 2 2 2 2 2 2 2 2 2
 2 2 2 2 2 2 2 2 2 2
 2 2 2 2 2 2 2 2 2 2
 2 2 2 2 2 2 2 2 2 2
 2 2 2 2 2 2 2 2 2 2
 2 2 2 2 2 2 2 2 2 2
 2 2 2 2 2 2 2 2 2 2
 2 2 2 2 2 2 2 2 2 2
 2 2 2 2 2 2 2 2 2 2
 2 2 2 2 2 2 2 2 2 2
 2 2 2 2 2 2 2 2 2 2
 2 2 2 2 2 2 2 2 2 2
 2 2 2 2 2 2 2 2 2 2
 2 2 2 2 2 2 2 2 2 2
 2 2 2 2 2 2 2 2 2 2
 2 2 2 2 2 2 2 2 2 2
 0 0 0 0 0 0 0 0 0 0
 0 0 0 0 0 0 0 0 0 0
 0 0 0 0 0 0 0 0 0 0
 0 0 0 0 0 0 0 0 0 0
 0 0 0 0 0 0 0 0 0 0
 0 0 0 0 0 0 0 0 0 0
 0 0 0 0 0 0 0 0 0 0
 0 0 0 0 0 0 0 0 0 0
 0 0 0 0 0 0 0 0 0 0
 0 0 0 0 0 0 0 0 0 0
 0 0 0 0 0 0 0 0 0 0
 0 0 0 0 0 0 0 0 0 0
 0 0 0 0 0 0 0 0 0 0
 0 0 0 0 0 0 0 0 0 0
 0 0 0 0 0 0 0 0 0 0
 0 0 0 0 0 0 0 0 0 0
 0 0 0 0 0 0 0 0 0 0
 0 0 0 0 0 0 0 0 0 0
 0 0 0 0 0 0 0 0 0 0
 0 0 0 0 0 0 0 0 0 0
 0 0 0 0 0 0 0 0 0 0
 0 0 0 0 0 0 0 0 0 0
 0 0 0 0 0 0 0 0 0 0
 0 0 0 0 0 0 0 0 0 0
 0 0 0 0 0 0 0 0 0 0
 0 0 0 0 0 0 0 0 0 0
 0 0 0 0 0 0 0 0 0 0
 0 0 0 0 0 0 0 0 0 0
 0 0 0 0 0 0 0 0 0 0
 0 0 0 0 0 0 0 0 0 0
 0 0 0 0 0 0 0 0 0 0
 0 0 0 0 0 0 0 0 0 0
 0 0 0 0 0 0 0 0 0 0
 0 0 0 0 0 0 0 0 0 0
 0 0 0 0 0 0 0 0 0 0
 0 0 0 0 0 0 0 0 0 0
 0 0 0 0 0 0 0 0 0 0
 0 0 0 0 0 0 0 0 0 0
 0 0 0 0 0 0 0 0 0 0
 0 0 0 0 0 0 0 0 0 0
 0 0 0 0 0 0 0 0 0 0
 0 0 0 0 0 0 0 0 0 0
 0 0 0 0 0 0 0 0 0 0
 0 0 0 0 0 0 0 0 0 0
 0 0 0 0 0 0 0 0 0 0
 0 0 0 0 0 0 0 0 0 0
 0 0 0 0 0 0 0 0 0 0
 0 0 0 0 0 0 0 0 0 0
 0 0 0 0 0 0 0 0 0 0
 0 0 0 0 0 0 0 0 0 0
 0 0 0 0 0 0 0 0 0 0
 0 0 0 0 0 0 0 0 0 0
 0 0 0 0 0 0 0 0 0 0
 0 0 0 0 0 0 0 0 0 0
 0 0 0 0 0 0 0 0 0 0
 0 0 0 0 0 0 0 0 0 0
 0 0 0 0 0 0 0 0 0 0
 0 0 0 0 0 0 0 0 0 0
 0 0 0 0 0 0 0 0 0 0
 0 0 0 0 0 0 0 0 0 0
 0 0 0 0 0 0 0 0 0 0
 0 0 0 0 0 0 0 0 0 0
 0 0 0 0 0 0 0 0 0 0
 0 0 0 0 0 0 0 0 0 0
 0 0 0 0 0 0 0 0 0 0
 0 0 0 0 0 0 0 0 0 0
 0 0 0 0 0 0 0 0 0 0
 0 0 0 0 0 0 0 0 0 0
 0 0 0 0 0 0 0 0 0 0
 0 0 0 0 0 0 0 0 0 0
 0 0 0 0 0 0 0 0 0 0
 0 0 0 0 0 0 0 0 0 0
 0 0 0 0 0 0 0 0 0 0
 0 0 0 0 0 0 0 0 0 0
 0 0 0 0 0 0 0 0 0 0
 0 0 0 0 0 0 0 0 0 0
 0 0 0 0
        </DataArray>
      </PointData>
      <Points>
        <DataArray type="Float32" NumberOfComponents="3" format="ascii">
  0.000000  0.500000  0.000000
  0.000000  0.490000  0.000000
  0.000000  0.480000  0.000000
  0.000000  0.470000  0.000000
  0.000000  0.460000  0.000000
  0.000000  0.450000  0.000000
  0.000000  0.440000  0.000000
  0.000000  0.430000  0.000000
  0.000000  0.420000  0.000000
  0.000000  0.410000  0.000000
  0.000000  0.400000  0.000000
  0.000000  0.390000  0.000000
  0.000000  0.380000  0.000000
  0.000000  0.370000  0.000000
  0.000000  0.360000  0.000000
  0.000000  0.350000  0.000000
  0.000000  0.340000  0.000000
  0.000000  0.330000  0.000000
  0.000000  0.320000  0.000000
  0.000000  0.310000  0.000000
  0.000000  0.300000  0.000000
  0.000000  0.290000  0.000000
  0.000000  0.280000  0.000000
  0.000000  0.270000  0.000000
  0.000000  0.260000  0.000000
  0.000000  0.250000  0.000000
  0.000000  0.240000  0.000000
  0.000000  0.230000  0.000000
  0.000000  0.220000  0.000000
  0.000000  0.210000  0.000000
  0.000000  0.200000  0.000000
  0.000000  0.190000  0.000000
  0.000000  0.180000  0.000000
  0.000000  0.170000  0.000000
  0.000000  0.160000  0.000000
  0.000000  0.150000  0.000000
  0.000000  0.140000  0.000000
  0.000000  0.130000  0.000000
  0.000000  0.120000  0.000000
  0.000000  0.110000  0.000000
  0.000000  0.100000  0.000000
  0.000000  0.090000  0.000000
  0.000000  0.080000  0.000000
  0.000000  0.070000  0.000000
  0.000000  0.060000  0.000000
  0.000000  0.050000  0.000000
  0.000000  0.040000  0.000000
  0.000000  0.030000  0.000000
  0.000000  0.020000  0.000000
  0.000000  0.010000  0.000000
 -0.100000  0.000000  0.000000
 -0.090000  0.000000  0.000000
 -0.080000  0.000000  0.000000
 -0.070000  0.000000  0.000000
 -0.060000  0.000000  0.000000
 -0.050000  0.000000  0.000000
 -0.040000  0.000000  0.000000
 -0.030000  0.000000  0.000000
 -0.020000  0.000000  0.000000
 -0.010000  0.000000  0.000000
 -0.000000  0.000000  0.000000
  0.010000  0.000000  0.000000
  0.020000  0.000000  0.000000
  0.030000  0.000000  0.000000
  0.040000  0.000000  0.000000
  0.050000  0.000000  0.000000
  0.060000  0.000000  0.000000
  0.070000  0.000000  0.000000
  0.080000  0.000000  0.000000
  0.090000  0.000000  0.000000
  0.100000  0.000000  0.000000
  0.110000  0.000000  0.000000
  0.120000  0.000000  0.000000
  0.130000  0.000000  0.000000
  0.140000  0.000000  0.000000
  0.150000  0.000000  0.000000
  0.160000  0.000000  0.000000
  0.170000  0.000000  0.000000
  0.180000  0.000000  0.000000
  0.190000  0.000000  0.000000
  0.200000  0.000000  0.000000
  0.210000  0.000000  0.000000
  0.220000  0.000000  0.000000
  0.230000  0.000000  0.000000
  0.240000  0.000000  0.000000
  0.250000  0.000000  0.000000
  0.260000  0.000000  0.000000
  0.270000  0.000000  0.000000
  0.280000  0.000000  0.000000
  0.290000  0.000000  0.000000
  0.300000  0.000000  0.000000
  0.310000  0.000000  0.000000
  0.320000  0.000000  0.000000
  0.330000  0.000000  0.000000
  0.340000  0.000000  0.000000
  0.350000  0.000000  0.000000
  0.360000  0.000000  0.000000
  0.370000  0.000000  0.000000
  0.380000  0.000000  0.000000
  0.390000  0.000000  0.000000
  0.400000  0.000000  0.000000
  0.410000  0.000000  0.000000
  0.420000  0.000000  0.000000
  0.430000  0.000000  0.000000
  0.440000  0.000000  0.000000
  0.450000  0.000000  0.000000
  0.460000  0.000000  0.000000
  0.470000  0.000000  0.000000
  0.480000  0.000000  0.000000
  0.490000  0.000000  0.000000
  0.500000  0.000000  0.000000
  0.510000  0.000000  0.000000
  0.520000  0.000000  0.000000
  0.530000  0.000000  0.000000
  0.540000  0.000000  0.000000
  0.550000  0.000000  0.000000
  0.560000  0.000000  0.000000
  0.570000  0.000000  0.000000
  0.580000  0.000000  0.000000
  0.590000  0.000000  0.000000
  0.600000  0.000000  0.000000
  0.610000  0.000000  0.000000
  0.620000  0.000000  0.000000
  0.630000  0.000000  0.000000
  0.640000  0.000000  0.000000
  0.650000  0.000000  0.000000
  0.660000  0.000000  0.000000
  0.670000  0.000000  0.000000
  0.680000  0.000000  0.000000
  0.690000  0.000000  0.000000
  0.700000  0.000000  0.000000
  0.710000  0.000000  0.000000
  0.720000  0.000000  0.000000
  0.730000  0.000000  0.000000
  0.740000  0.000000  0.000000
  0.750000  0.000000  0.000000
  0.760000  0.000000  0.000000
  0.770000  0.000000  0.000000
  0.780000  0.000000  0.000000
  0.790000  0.000000  0.000000
  0.800000  0.000000  0.000000
  0.700000  0.010000  0.000000
  0.700000  0.020000  0.000000
  0.700000  0.030000  0.000000
  0.700000  0.040000  0.000000
  0.700000  0.050000  0.000000
  0.700000  0.060000  0.000000
  0.700000  0.070000  0.000000
  0.700000  0.080000  0.000000
  0.700000  0.090000  0.000000
  0.700000  0.100000  0.000000
  0.700000  0.110000  0.000000
  0.700000  0.120000  0.000000
  0.700000  0.130000  0.000000
  0.700000  0.140000  0.000000
  0.700000  0.150000  0.000000
  0.700000  0.160000  0.000000
  0.700000  0.170000  0.000000
  0.700000  0.180000  0.000000
  0.700000  0.190000  0.000000
  0.700000  0.200000  0.000000
  0.700000  0.210000  0.000000
  0.700000  0.220000  0.000000
  0.700000  0.230000  0.000000
  0.700000  0.240000  0.000000
  0.700000  0.250000  0.000000
  0.700000  0.260000  0.000000
  0.700000  0.270000  0.000000
  0.700000  0.280000  0.000000
  0.700000  0.290000  0.000000
  0.700000  0.300000  0.000000
  0.700000  0.310000  0.000000
  0.700000  0.320000  0.000000
  0.700000  0.330000  0.000000
  0.700000  0.340000  0.000000
  0.700000  0.350000  0.000000
  0.700000  0.360000  0.000000
  0.700000  0.370000  0.000000
  0.700000  0.380000  0.000000
  0.700000  0.390000  0.000000
  0.700000  0.400000  0.000000
  0.700000  0.410000  0.000000
  0.700000  0.420000  0.000000
  0.700000  0.430000  0.000000
  0.700000  0.440000  0.000000
  0.700000  0.450000  0.000000
  0.700000  0.460000  0.000000
  0.700000  0.470000  0.000000
  0.700000  0.480000  0.000000
  0.700000  0.490000  0.000000
  0.700000  0.500000  0.000000
  0.020745  0.010347  0.000000
  0.020768  0.020229  0.000000
  0.036567  0.014221  0.000000
  0.010543  0.009813  0.000000
  0.036663  0.023608  0.000000
  0.009600  0.018822  0.000000
  0.041319  0.029567  0.000000
  0.048211  0.016209  0.000000
  0.070377  0.025990  0.000000
  0.047720  0.032868  0.000000
  0.056439  0.035536  0.000000
  0.009740  0.029808  0.000000
  0.014828  0.040359  0.000000
  0.008819  0.043829  0.000000
  0.010297  0.056266  0.000000
  0.023965  0.051538  0.000000
  0.042128  0.057731  0.000000
  0.012551  0.059660  0.000000
  0.030802  0.073976  0.000000
  0.008719  0.072355  0.000000
  0.017644  0.070034  0.000000
  0.011991  0.081872  0.000000
  0.009817  0.089758  0.000000
  0.016561  0.100853  0.000000
  0.009316  0.100634  0.000000
  0.025108  0.104512  0.000000
  0.008940  0.114242  0.000000
  0.020865  0.116333  0.000000
  0.018493  0.112898  0.000000
  0.032311  0.117243  0.000000
  0.045048  0.008230  0.000000
  0.029700  0.009990  0.000000
  0.060668  0.009027  0.000000
  0.055137  0.019078  0.000000
  0.075321  0.011498  0.000000
  0.080683  0.019186  0.000000
  0.097419  0.012701  0.000000
  0.066885  0.012151  0.000000
  0.065580  0.038781  0.000000
  0.057443  0.024938  0.000000
  0.045174  0.047126  0.000000
  0.027257  0.025418  0.000000
  0.065685  0.043564  0.000000
  0.030915  0.035803  0.000000
  0.056243  0.054193  0.000000
  0.023861  0.042584  0.000000
  0.017821  0.030040  0.000000
  0.035249  0.051819  0.000000
  0.054425  0.058725  0.000000
  0.025388  0.057902  0.000000
  0.054713  0.071856  0.000000
  0.040118  0.065320  0.000000
  0.021789  0.077843  0.000000
  0.037126  0.080219  0.000000
  0.022879  0.089586  0.000000
  0.036064  0.097074  0.000000
  0.024930  0.091261  0.000000
  0.038683  0.093505  0.000000
  0.034863  0.107341  0.000000
  0.046421  0.108743  0.000000
  0.112888  0.011762  0.000000
  0.085524  0.007899  0.000000
  0.103324  0.009596  0.000000
  0.088553  0.018890  0.000000
  0.108765  0.021547  0.000000
  0.131678  0.013332  0.000000
  0.146415  0.019392  0.000000
  0.115286  0.034722  0.000000
  0.095382  0.043139  0.000000
  0.070792  0.026347  0.000000
  0.099591  0.030733  0.000000
  0.096398  0.023557  0.000000
  0.074179  0.048675  0.000000
  0.079468  0.067953  0.000000
  0.093206  0.059263  0.000000
  0.035067  0.041461  0.000000
  0.065468  0.057062  0.000000
  0.050625  0.043663  0.000000
  0.045846  0.069699  0.000000
  0.027881  0.066290  0.000000
  0.065455  0.066455  0.000000
  0.062420  0.078924  0.000000
  0.052745  0.080214  0.000000
  0.041502  0.082364  0.000000
  0.058489  0.090192  0.000000
  0.049484  0.092251  0.000000
  0.052894  0.098731  0.000000
  0.061119  0.107455  0.000000
  0.055875  0.108806  0.000000
  0.043882  0.114682  0.000000
  0.151662  0.009062  0.000000
  0.121724  0.008902  0.000000
  0.156877  0.014336  0.000000
  0.121595  0.018696  0.000000
  0.144470  0.038524  0.000000
  0.138539  0.008780  0.000000
  0.141788  0.031873  0.000000
  0.140598  0.019845  0.000000
  0.125773  0.040183  0.000000
  0.085654  0.030524  0.000000
  0.135914  0.038391  0.000000
  0.085257  0.037617  0.000000
  0.116597  0.043318  0.000000
  0.078753  0.038278  0.000000
  0.076681  0.055643  0.000000
  0.112835  0.027115  0.000000
  0.085932  0.049814  0.000000
  0.100457  0.048760  0.000000
  0.086128  0.059663  0.000000
  0.082558  0.074255  0.000000
  0.105699  0.067430  0.000000
  0.069819  0.069932  0.000000
  0.066946  0.086184  0.000000
  0.092636  0.075435  0.000000
  0.078515  0.084023  0.000000
  0.069510  0.097856  0.000000
  0.081140  0.099696  0.000000
  0.071570  0.099753  0.000000
  0.069241  0.114279  0.000000
  0.078912  0.111569  0.000000
  0.181503  0.009172  0.000000
  0.167997  0.008990  0.000000
  0.179309  0.014681  0.000000
  0.166003  0.016281  0.000000
  0.207697  0.011598  0.000000
  0.160522  0.026597  0.000000
  0.153444  0.028453  0.000000
  0.171796  0.024731  0.000000
  0.129857  0.025114  0.000000
  0.172907  0.035487  0.000000
  0.126017  0.029546  0.000000
  0.158885  0.035495  0.000000
  0.151878  0.045146  0.000000
  0.136628  0.051320  0.000000
  0.146485  0.064581  0.000000
  0.101853  0.037146  0.000000
  0.131414  0.050110  0.000000
  0.112443  0.047990  0.000000
  0.121061  0.070875  0.000000
  0.103643  0.056045  0.000000
  0.096355  0.070118  0.000000
  0.109758  0.063655  0.000000
  0.100035  0.081746  0.000000
  0.078534  0.084607  0.000000
  0.102717  0.085930  0.000000
  0.089708  0.094126  0.000000
  0.094682  0.090410  0.000000
  0.098297  0.105918  0.000000
  0.091322  0.103493  0.000000
  0.088016  0.113182  0.000000
  0.215194  0.011702  0.000000
  0.195497  0.009494  0.000000
  0.236553  0.021566  0.000000
  0.210394  0.022528  0.000000
  0.254859  0.010578  0.000000
  0.216493  0.031302  0.000000
  0.232026  0.013117  0.000000
  0.194373  0.015640  0.000000
  0.202315  0.021401  0.000000
  0.225868  0.027929  0.000000
  0.193499  0.030177  0.000000
  0.204555  0.033776  0.000000
  0.187849  0.023072  0.000000
  0.161929  0.044526  0.000000
  0.151072  0.052063  0.000000
  0.157806  0.055923  0.000000
  0.120697  0.055957  0.000000
  0.172154  0.054469  0.000000
  0.121433  0.059149  0.000000
  0.139316  0.058706  0.000000
  0.131890  0.066377  0.000000
  0.137583  0.070914  0.000000
  0.114323  0.076758  0.000000
  0.125930  0.078290  0.000000
  0.124338  0.090420  0.000000
  0.116607  0.082202  0.000000
  0.113541  0.095390  0.000000
  0.111835  0.097222  0.000000
  0.105660  0.101967  0.000000
  0.111477  0.111636  0.000000
  0.272310  0.010672  0.000000
  0.226929  0.010595  0.000000
  0.243599  0.011305  0.000000
  0.220673  0.019705  0.000000
  0.304361  0.025429  0.000000
  0.263410  0.013442  0.000000
  0.278474  0.014556  0.000000
  0.248968  0.016219  0.000000
  0.243406  0.025276  0.000000
  0.240948  0.033237  0.000000
  0.228888  0.033410  0.000000
  0.239905  0.043429  0.000000
  0.207138  0.038585  0.000000
  0.179120  0.027147  0.000000
  0.187904  0.035594  0.000000
  0.171609  0.041017  0.000000
  0.175522  0.051466  0.000000
  0.191170  0.052408  0.000000
  0.165666  0.062180  0.000000
  0.156014  0.065833  0.000000
  0.171839  0.068840  0.000000
  0.150817  0.075345  0.000000
  0.140047  0.078311  0.000000
  0.149587  0.084896  0.000000
  0.133266  0.087682  0.000000
  0.145832  0.089682  0.000000
  0.135545  0.101172  0.000000
  0.131471  0.093735  0.000000
  0.129236  0.110481  0.000000
  0.122828  0.107994  0.000000
  0.293189  0.017682  0.000000
  0.287130  0.011323  0.000000
  0.341080  0.026623  0.000000
  0.296548  0.011018  0.000000
  0.353339  0.023178  0.000000
  0.320305  0.013211  0.000000
  0.318181  0.027077  0.000000
  0.296385  0.026807  0.000000
  0.308165  0.010889  0.000000
  0.284006  0.025690  0.000000
  0.268945  0.021094  0.000000
  0.259486  0.024805  0.000000
  0.258687  0.029314  0.000000
  0.220430  0.043059  0.000000
  0.231176  0.053239  0.000000
  0.197001  0.042335  0.000000
  0.184200  0.043197  0.000000
  0.216562  0.049754  0.000000
  0.197152  0.052067  0.000000
  0.209032  0.049402  0.000000
  0.182464  0.066066  0.000000
  0.184342  0.058342  0.000000
  0.186011  0.072260  0.000000
  0.160122  0.075006  0.000000
  0.171325  0.076256  0.000000
  0.167100  0.083747  0.000000
  0.162899  0.086919  0.000000
  0.152729  0.095569  0.000000
  0.151943  0.105912  0.000000
  0.152734  0.102315  0.000000
  0.357560  0.008246  0.000000
  0.339298  0.012475  0.000000
  0.366662  0.013498  0.000000
  0.344142  0.014585  0.000000
  0.380246  0.021706  0.000000
  0.353523  0.017502  0.000000
  0.369491  0.030525  0.000000
  0.326253  0.018732  0.000000
  0.330452  0.010033  0.000000
  0.325505  0.031937  0.000000
  0.290339  0.036853  0.000000
  0.294821  0.038148  0.000000
  0.277945  0.045887  0.000000
  0.278438  0.028158  0.000000
  0.267302  0.035556  0.000000
  0.228411  0.043383  0.000000
  0.249640  0.036270  0.000000
  0.241569  0.051339  0.000000
  0.247643  0.058773  0.000000
  0.225414  0.058377  0.000000
  0.212718  0.062312  0.000000
  0.204783  0.059493  0.000000
  0.203636  0.069597  0.000000
  0.195052  0.067139  0.000000
  0.199762  0.076738  0.000000
  0.185426  0.081293  0.000000
  0.181176  0.087346  0.000000
  0.175240  0.094853  0.000000
  0.176929  0.099077  0.000000
  0.167433  0.099892  0.000000
  0.431683  0.011154  0.000000
  0.373677  0.012737  0.000000
  0.439207  0.014065  0.000000
  0.406872  0.016585  0.000000
  0.450041  0.028464  0.000000
  0.409042  0.009838  0.000000
  0.441717  0.021994  0.000000
  0.387743  0.030299  0.000000
  0.358594  0.033392  0.000000
  0.333478  0.025158  0.000000
  0.340961  0.035781  0.000000
  0.329322  0.040821  0.000000
  0.277486  0.036124  0.000000
  0.311811  0.013609  0.000000
  0.310885  0.029164  0.000000
  0.306474  0.036826  0.000000
  0.271111  0.051220  0.000000
  0.263201  0.041595  0.000000
  0.263036  0.056235  0.000000
  0.251592  0.043732  0.000000
  0.258158  0.050013  0.000000
  0.235668  0.062404  0.000000
  0.244418  0.064968  0.000000
  0.217252  0.066958  0.000000
  0.227475  0.081241  0.000000
  0.215897  0.079845  0.000000
  0.212058  0.080373  0.000000
  0.200551  0.085639  0.000000
  0.191368  0.085991  0.000000
  0.193894  0.098632  0.000000
  0.469116  0.016041  0.000000
  0.431035  0.026864  0.000000
  0.511388  0.010614  0.000000
  0.456283  0.009886  0.000000
  0.496517  0.011829  0.000000
  0.447975  0.013766  0.000000
  0.475227  0.010469  0.000000
  0.457912  0.015425  0.000000
  0.423442  0.026781  0.000000
  0.397554  0.017402  0.000000
  0.418031  0.013904  0.000000
  0.365616  0.022252  0.000000
  0.375141  0.031256  0.000000
  0.378206  0.047809  0.000000
  0.366528  0.047652  0.000000
  0.327411  0.041361  0.000000
  0.314690  0.044658  0.000000
  0.303162  0.045752  0.000000
  0.301833  0.053051  0.000000
  0.290997  0.053350  0.000000
  0.286332  0.066404  0.000000
  0.273612  0.062562  0.000000
  0.258435  0.063315  0.000000
  0.259303  0.079639  0.000000
  0.226175  0.070434  0.000000
  0.237116  0.074599  0.000000
  0.236576  0.089225  0.000000
  0.214559  0.093652  0.000000
  0.216839  0.093615  0.000000
  0.201987  0.094646  0.000000
  0.570002  0.013031  0.000000
  0.532503  0.010800  0.000000
  0.572270  0.016324  0.000000
  0.550703  0.013289  0.000000
  0.559634  0.010912  0.000000
  0.531694  0.014072  0.000000
  0.510924  0.013283  0.000000
  0.479879  0.014537  0.000000
  0.490095  0.011070  0.000000
  0.471798  0.029377  0.000000
  0.456388  0.030640  0.000000
  0.424245  0.013382  0.000000
  0.416768  0.026516  0.000000
  0.403127  0.033840  0.000000
  0.388227  0.019629  0.000000
  0.377754  0.041331  0.000000
  0.361136  0.048778  0.000000
  0.354133  0.035769  0.000000
  0.357930  0.052682  0.000000
  0.344213  0.049783  0.000000
  0.317117  0.050133  0.000000
  0.330094  0.056855  0.000000
  0.283478  0.048363  0.000000
  0.295803  0.056867  0.000000
  0.278431  0.064350  0.000000
  0.261364  0.070857  0.000000
  0.249073  0.091710  0.000000
  0.249547  0.073749  0.000000
  0.238712  0.080174  0.000000
  0.225368  0.089391  0.000000
  0.652621  0.011024  0.000000
  0.621880  0.028242  0.000000
  0.625041  0.013761  0.000000
  0.605774  0.011225  0.000000
  0.616059  0.018464  0.000000
  0.583667  0.013264  0.000000
  0.554610  0.025524  0.000000
  0.560922  0.019879  0.000000
  0.544845  0.012099  0.000000
  0.516638  0.023510  0.000000
  0.495081  0.020553  0.000000
  0.476426  0.024536  0.000000
  0.462401  0.025472  0.000000
  0.476842  0.041500  0.000000
  0.421592  0.037053  0.000000
  0.425996  0.048045  0.000000
  0.406786  0.027536  0.000000
  0.394567  0.011421  0.000000
  0.383232  0.009998  0.000000
  0.418687  0.044371  0.000000
  0.387071  0.037629  0.000000
  0.369227  0.063218  0.000000
  0.347891  0.040515  0.000000
  0.318708  0.056478  0.000000
  0.314019  0.065176  0.000000
  0.294165  0.069862  0.000000
  0.281214  0.075938  0.000000
  0.270219  0.074202  0.000000
  0.263238  0.085571  0.000000
  0.250860  0.087405  0.000000
  0.675261  0.024982  0.000000
  0.652001  0.025306  0.000000
  0.657719  0.014220  0.000000
  0.644879  0.012590  0.000000
  0.656238  0.071383  0.000000
  0.628697  0.011749  0.000000
  0.607326  0.027167  0.000000
  0.617068  0.032501  0.000000
  0.581881  0.030987  0.000000
  0.608485  0.033650  0.000000
  0.591233  0.024398  0.000000
  0.548047  0.028615  0.000000
  0.523260  0.023718  0.000000
  0.544812  0.045357  0.000000
  0.508356  0.023103  0.000000
  0.492863  0.024966  0.000000
  0.495151  0.048207  0.000000
  0.451001  0.041751  0.000000
  0.461936  0.041963  0.000000
  0.437770  0.031266  0.000000
  0.409848  0.041604  0.000000
  0.396219  0.035684  0.000000
  0.395985  0.053539  0.000000
  0.358414  0.068713  0.000000
  0.346367  0.058394  0.000000
  0.333499  0.068486  0.000000
  0.307682  0.065222  0.000000
  0.299261  0.081147  0.000000
  0.284539  0.082375  0.000000
  0.272709  0.084400  0.000000
  0.682812  0.023423  0.000000
  0.688900  0.066159  0.000000
  0.675894  0.045973  0.000000
  0.683257  0.036071  0.000000
  0.676886  0.062305  0.000000
  0.668327  0.014596  0.000000
  0.637215  0.012091  0.000000
  0.646240  0.051717  0.000000
  0.624856  0.039586  0.000000
  0.636763  0.024967  0.000000
  0.631881  0.040379  0.000000
  0.597308  0.013205  0.000000
  0.612800  0.012154  0.000000
  0.598653  0.021346  0.000000
  0.536344  0.021024  0.000000
  0.561826  0.036811  0.000000
  0.537087  0.032801  0.000000
  0.507021  0.032646  0.000000
  0.506403  0.041627  0.000000
  0.486184  0.031758  0.000000
  0.476236  0.037290  0.000000
  0.443473  0.038070  0.000000
  0.421340  0.063419  0.000000
  0.405032  0.045667  0.000000
  0.378245  0.054486  0.000000
  0.383716  0.062492  0.000000
  0.338472  0.052733  0.000000
  0.330973  0.062821  0.000000
  0.311100  0.074489  0.000000
  0.295437  0.076746  0.000000
  0.690134  0.036195  0.000000
  0.688474  0.012085  0.000000
  0.688513  0.078650  0.000000
  0.686866  0.141334  0.000000
  0.681378  0.010643  0.000000
  0.670828  0.011596  0.000000
  0.671907  0.077276  0.000000
  0.675196  0.079245  0.000000
  0.661862  0.025257  0.000000
  0.670260  0.031850  0.000000
  0.669994  0.056367  0.000000
  0.661188  0.033802  0.000000
  0.648678  0.041293  0.000000
  0.657745  0.056254  0.000000
  0.636012  0.056023  0.000000
  0.608956  0.046422  0.000000
  0.597937  0.040198  0.000000
  0.585791  0.011480  0.000000
  0.567081  0.029981  0.000000
  0.539359  0.045954  0.000000
  0.534905  0.030317  0.000000
  0.495549  0.035751  0.000000
  0.470468  0.051768  0.000000
  0.473261  0.064722  0.000000
  0.438265  0.046497  0.000000
  0.413937  0.061233  0.000000
  0.393747  0.049414  0.000000
  0.367379  0.073244  0.000000
  0.349113  0.069795  0.000000
  0.316582  0.073923  0.000000
  0.681163  0.134525  0.000000
  0.659748  0.186734  0.000000
  0.690135  0.055639  0.000000
  0.680548  0.100688  0.000000
  0.627324  0.223127  0.000000
  0.686883  0.087701  0.000000
  0.688606  0.110595  0.000000
  0.673833  0.128444  0.000000
  0.690072  0.177256  0.000000
  0.674168  0.106736  0.000000
  0.669102  0.042968  0.000000
  0.682463  0.055338  0.000000
  0.663736  0.080626  0.000000
  0.654209  0.080495  0.000000
  0.662555  0.045254  0.000000
  0.667787  0.066639  0.000000
  0.645457  0.047227  0.000000
  0.633684  0.034360  0.000000
  0.616680  0.052183  0.000000
  0.593715  0.034132  0.000000
  0.566774  0.048689  0.000000
  0.550345  0.037920  0.000000
  0.522633  0.033599  0.000000
  0.522989  0.050881  0.000000
  0.465378  0.049846  0.000000
  0.452420  0.059156  0.000000
  0.429904  0.047084  0.000000
  0.412031  0.063667  0.000000
  0.370805  0.065818  0.000000
  0.339379  0.073404  0.000000
  0.687198  0.105993  0.000000
  0.620685  0.284991  0.000000
  0.686667  0.164874  0.000000
  0.684044  0.072719  0.000000
  0.685851  0.161341  0.000000
  0.686591  0.044513  0.000000
  0.689387  0.022413  0.000000
  0.687753  0.138572  0.000000
  0.665950  0.161676  0.000000
  0.687065  0.192342  0.000000
  0.655564  0.160552  0.000000
  0.668877  0.097566  0.000000
  0.658679  0.139437  0.000000
  0.665931  0.145598  0.000000
  0.682104  0.091224  0.000000
  0.667998  0.111249  0.000000
  0.665120  0.096401  0.000000
  0.657178  0.091569  0.000000
  0.649750  0.033467  0.000000
  0.646604  0.072811  0.000000
  0.633082  0.065929  0.000000
  0.622197  0.056396  0.000000
  0.576169  0.045220  0.000000
  0.578875  0.026764  0.000000
  0.534657  0.048801  0.000000
  0.516813  0.038153  0.000000
  0.485553  0.051719  0.000000
  0.451069  0.049273  0.000000
  0.403693  0.060022  0.000000
  0.387439  0.064160  0.000000
  0.618129  0.278710  0.000000
  0.669547  0.245416  0.000000
  0.687780  0.126567  0.000000
  0.591833  0.388051  0.000000
  0.676840  0.330874  0.000000
  0.603492  0.295811  0.000000
  0.662577  0.340606  0.000000
  0.663452  0.193080  0.000000
  0.665809  0.253127  0.000000
  0.653823  0.291862  0.000000
  0.658840  0.228188  0.000000
  0.678702  0.206182  0.000000
  0.682156  0.223755  0.000000
  0.648204  0.182658  0.000000
  0.668505  0.121623  0.000000
  0.675345  0.174043  0.000000
  0.682221  0.118137  0.000000
  0.679181  0.173112  0.000000
  0.653328  0.116844  0.000000
  0.648897  0.116891  0.000000
  0.644812  0.077401  0.000000
  0.641316  0.026201  0.000000
  0.658499  0.057720  0.000000
  0.581948  0.050384  0.000000
  0.587804  0.040969  0.000000
  0.572524  0.037512  0.000000
  0.524580  0.044216  0.000000
  0.492230  0.042600  0.000000
  0.443735  0.062143  0.000000
  0.435311  0.062049  0.000000
  0.544611  0.422315  0.000000
  0.631323  0.262724  0.000000
  0.518122  0.393378  0.000000
  0.495156  0.453611  0.000000
  0.583126  0.431477  0.000000
  0.640449  0.303342  0.000000
  0.664398  0.329067  0.000000
  0.675296  0.380298  0.000000
  0.672979  0.294647  0.000000
  0.649397  0.412041  0.000000
  0.614335  0.278133  0.000000
  0.663936  0.263832  0.000000
  0.678737  0.276229  0.000000
  0.678814  0.244308  0.000000
  0.654609  0.195528  0.000000
  0.689283  0.218529  0.000000
  0.649260  0.164970  0.000000
  0.647399  0.147793  0.000000
  0.663529  0.145913  0.000000
  0.668103  0.125832  0.000000
  0.654450  0.115473  0.000000
  0.656441  0.093058  0.000000
  0.644127  0.064932  0.000000
  0.628228  0.051218  0.000000
  0.606582  0.047705  0.000000
  0.554578  0.049047  0.000000
  0.506361  0.055637  0.000000
  0.512384  0.050599  0.000000
  0.457395  0.058309  0.000000
 -0.010000  0.500000  0.000000
 -0.010000  0.490000  0.000000
 -0.010000  0.480000  0.000000
 -0.010000  0.470000  0.000000
 -0.010000  0.460000  0.000000
 -0.010000  0.450000  0.000000
 -0.010000  0.440000  0.000000
 -0.010000  0.430000  0.000000
 -0.010000  0.420000  0.000000
 -0.010000  0.410000  0.000000
 -0.010000  0.400000  0.000000
 -0.010000  0.390000  0.000000
 -0.010000  0.380000  0.000000
 -0.010000  0.370000  0.000000
 -0.010000  0.360000  0.000000
 -0.010000  0.350000  0.000000
 -0.010000  0.340000  0.000000
 -0.010000  0.330000  0.000000
 -0.010000  0.320000  0.000000
 -0.010000  0.310000  0.000000
 -0.010000  0.300000  0.000000
 -0.010000  0.290000  0.000000
 -0.010000  0.280000  0.000000
 -0.010000  0.270000  0.000000
 -0.010000  0.260000  0.000000
 -0.010000  0.250000  0.000000
 -0.010000  0.240000  0.000000
 -0.010000  0.230000  0.000000
 -0.010000  0.220000  0.000000
 -0.010000  0.210000  0.000000
 -0.010000  0.200000  0.000000
 -0.010000  0.190000  0.000000
 -0.010000  0.180000  0.000000
 -0.010000  0.170000  0.000000
 -0.010000  0.160000  0.000000
 -0.010000  0.150000  0.000000
 -0.010000  0.140000  0.000000
 -0.010000  0.130000  0.000000
 -0.010000  0.120000  0.000000
 -0.010000  0.110000  0.000000
 -0.010000  0.100000  0.000000
 -0.010000  0.090000  0.000000
 -0.010000  0.080000  0.000000
 -0.010000  0.070000  0.000000
 -0.010000  0.060000  0.000000
 -0.010000  0.050000  0.000000
 -0.010000  0.040000  0.000000
 -0.010000  0.030000  0.000000
 -0.010000  0.020000  0.000000
 -0.010000  0.010000  0.000000
 -0.100000 -0.010000  0.000000
 -0.090000 -0.010000  0.000000
 -0.080000 -0.010000  0.000000
 -0.070000 -0.010000  0.000000
 -0.060000 -0.010000  0.000000
 -0.050000 -0.010000  0.000000
 -0.040000 -0.010000  0.000000
 -0.030000 -0.010000  0.000000
 -0.020000 -0.010000  0.000000