<?xml version="1.0" encoding="UTF-8"?>
<VTKFile type="UnstructuredGrid" version="1.0" byte_order="LittleEndian">
<UnstructuredGrid>
  <Piece NumberOfPoints="1555" NumberOfCells="1555">
      <PointData>
        <DataArray type="Int32" Name="Type" format="ascii">
 1 1 1 1 1 1 1 1 1 1
 1 1 1 1 1 1 1 1 1 1
 1 1 1 1 1 1 1 1 1 1
 1 1 1 1 1 1 1 1 1 1
 1 1 1 1 1 1 1 1 1 1
 1 1 1 1 1 1 1 1 1 1
 1 3 3 3 3 3 3 3 3 3
 3 3 3 3 3 3 3 3 3 3
 3 3 3 3 3 3 3 3 3 3
 3 3 3 3 3 3 3 3 3 3
 3 3 3 3 3 3 3 3 3 3
 3 3 3 3 3 3 3 3 3 3
 3 3 3 3 3 3 3 3 3 3
 1 1 1 1 1 1 1 1 1 1
 1 1 1 1 1 1 1 1 1 1
 1 1 1 1 1 1 1 1 1 1
 1 1 1 1 1 1 1 1 1 1
 1 1 1 1 1 1 1 1 1 1
 1 1 1 1 1 1 1 1 1 1
 1 2 2 2 2 2 2 2 2 2
 2 2 2 2 2 2 2 2 2 2
 2 2 2 2 2 2 2 2 2 2
 2 2 2 2 2 2 2 2 2 2
 2 2 2 2 2 2 2 2 2 2
 2 2 2 2 2 2 2 2 2 2
 2 2 2 2 2 2 2 2 2 2
 2 2 2 2 2 2 2 2 2 2
 2 2 2 2 2 2 2 2 2 2
 2 2 2 2 2 2 2 2 2 2
 2 2 2 2 2 2 2 2 2 2
 2 2 2 2 2 2 2 2 2 2
 2 2 2 2 2 2 2 2 2 2
 2 2 2 2 2 2 2 2 2 2
 2 2 2 2 2 2 2 2 2 2
 2 2 2 2 2 2 2 2 2 2
 2 2 2 2 2 2 2 2 2 2
 2 2 2 2 2 2 2 2 2 2
 2 2 2 2 2 2 2 2 2 2
 2 2 2 2 2 2 2 2 2 2
 2 2 2 2 2 2 2 2 2 2
 2 2 2 2 2 2 2 2 2 2
 2 2 2 2 2 2 2 2 2 2
 2 2 2 2 2 2 2 2 2 2
 2 2 2 2 2 2 2 2 2 2
 2 2 2 2 2 2 2 2 2 2
 2 2 2 2 2 2 2 2 2 2
 2 2 2 2 2 2 2 2 2 2
 2 2 2 2 2 2 2 2 2 2
 2 2 2 2 2 2 2 2 2 2
 2 2 2 2 2 2 2 2 2 2
 2 2 2 2 2 2 2 2 2 2
 2 2 2 2 2 2 2 2 2 2
 2 2 2 2 2 2 2 2 2 2
 2 2 2 2 2 2 2 2 2 2
 2 2 2 2 2 2 2 2 2 2
 2 2 2 2 2 2 2 2 2 2
 2 2 2 2 2 2 2 2 2 2
 2 2 2 2 2 2 2 2 2 2
 2 2 2 2 2 2 2 2 2 2
 2 2 2 2 2 2 2 2 2 2
 2 2 2 2 2 2 2 2 2 2
 2 2 2 2 2 2 2 2 2 2
 2 2 2 2 2 2 2 2 2 2
 2 2 2 2 2 2 2 2 2 2
 2 2 2 2 2 2 2 2 2 2
 2 2 2 2 2 2 2 2 2 2
 2 2 2 2 2 2 2 2 2 2
 2 2 2 2 2 2 2 2 2 2
 2 2 2 2 2 2 2 2 2 2
 2 2 2 2 2 2 2 2 2 2
 2 2 2 2 2 2 2 2 2 2
 2 2 2 2 2 2 2 2 2 2
 2 2 2 2 2 2 2 2 2 2
 2 2 2 2 2 2 2 2 2 2
 2 2 2 2 2 2 2 2 2 2
 2 2 2 2 2 2 2 2 2 2
 2 2 2 2 2 2 2 2 2 2
 2 2 2 2 2 2 2 2 2 2
 2 2 2 2 2 2 2 2 2 2
 2 0 0 0 0 0 0 0 0 0
 0 0 0 0 0 0 0 0 0 0
 0 0 0 0 0 0 0 0 0 0
 0 0 0 0 0 0 0 0 0 0
 0 0 0 0 0 0 0 0 0 0
 0 0 0 0 0 0 0 0 0 0
 0 0 0 0 0 0 0 0 0 0
 0 0 0 0 0 0 0 0 0 0
 0 0 0 0 0 0 0 0 0 0
 0 0 0 0 0 0 0 0 0 0
 0 0 0 0 0 0 0 0 0 0
 0 0 0 0 0 0 0 0 0 0
 0 0 0 0 0 0 0 0 0 0
 0 0 0 0 0 0 0 0 0 0
 0 0 0 0 0 0 0 0 0 0
 0 0 0 0 0 0 0 0 0 0
 0 0 0 0 0 0 0 0 0 0
 0 0 0 0 0 0 0 0 0 0
 0 0 0 0 0 0 0 0 0 0
 0 0 0 0 0 0 0 0 0 0
 0 0 0 0 0 0 0 0 0 0
 0 0 0 0 0 0 0 0 0 0
 0 0 0 0 0 0 0 0 0 0
 0 0 0 0 0 0 0 0 0 0
 0 0 0 0 0 0 0 0 0 0
 0 0 0 0 0 0 0 0 0 0
 0 0 0 0 0 0 0 0 0 0
 0 0 0 0 0 0 0 0 0 0
 0 0 0 0 0 0 0 0 0 0
 0 0 0 0 0 0 0 0 0 0
 0 0 0 0 0 0 0 0 0 0
 0 0 0 0 0 0 0 0 0 0
 0 0 0 0 0 0 0 0 0 0
 0 0 0 0 0 0 0 0 0 0
 0 0 0 0 0 0 0 0 0 0
 0 0 0 0 0 0 0 0 0 0
 0 0 0 0 0 0 0 0 0 0
 0 0 0 0 0 0 0 0 0 0
 0 0 0 0 0 0 0 0 0 0
 0 0 0 0 0 0 0 0 0 0
 0 0 0 0 0 0 0 0 0 0
 0 0 0 0 0 0 0 0 0 0
 0 0 0 0 0 0 0 0 0 0
 0 0 0 0 0 0 0 0 0 0
 0 0 0 0 0 0 0 0 0 0
 0 0 0 0 0 0 0 0 0 0
 0 0 0 0 0 0 0 0 0 0
 0 0 0 0 0 0 0 0 0 0
 0 0 0 0 0 0 0 0 0 0
 0 0 0 0 0 0 0 0 0 0
 0 0 0 0 0 0 0 0 0 0
 0 0 0 0 0 0 0 0 0 0
 0 0 0 0 0 0 0 0 0 0
 0 0 0 0 0 0 0 0 0 0
 0 0 0 0 0 0 0 0 0 0
 0 0 0 0 0 0 0 0 0 0
 0 0 0 0 0 0 0 0 0 0
 0 0 0 0 0 0 0 0 0 0
 0 0 0 0 0 0 0 0 0 0
 0 0 0 0 0 0 0 0 0 0
 0 0 0 0 0 0 0 0 0 0
 0 0 0 0 0 0 0 0 0 0
 0 0 0 0 0 0 0 0 0 0
 0 0 0 0 0 0 0 0 0 0
 0 0 0 0 0 0 0 0 0 0
 0 0 0 0 0 0 0 0 0 0
 0 0 0 0 0 0 0 0 0 0
 0 0 0 0 0 0 0 0 0 0
 0 0 0 0 0 0 0 0 0 0
 0 0 0 0 0 0 0 0 0 0
 0 0 0 0 0 0 0 0 0 0
 0 0 0 0 0 0 0 0 0 0
 0 0 0 0 0 0 0 0 0 0
 0 0 0 0 0 0 0 0 0 0
 0 0 0 0 0 0 0 0 0 0
 0 0 0 0 0 0 0 0 0 0
 0 0 0 0 0
        </DataArray>
      </PointData>
      <Points>
        <DataArray type="Float32" NumberOfComponents="3" format="ascii">
  0.000000  0.500000  0.000000
  0.000000  0.490000  0.000000
  0.000000  0.480000  0.000000
  0.000000  0.470000  0.000000
  0.000000  0.460000  0.000000
  0.000000  0.450000  0.000000
  0.000000  0.440000  0.000000
  0.000000  0.430000  0.000000
  0.000000  0.420000  0.000000
  0.000000  0.410000  0.000000
  0.000000  0.400000  0.000000
  0.000000  0.390000  0.000000
  0.000000  0.380000  0.000000
  0.000000  0.370000  0.000000
  0.000000  0.360000  0.000000
  0.000000  0.350000  0.000000
  0.000000  0.340000  0.000000
  0.000000  0.330000  0.000000
  0.000000  0.320000  0.000000
  0.000000  0.310000  0.000000
  0.000000  0.300000  0.000000
  0.000000  0.290000  0.000000
  0.000000  0.280000  0.000000
  0.000000  0.270000  0.000000
  0.000000  0.260000  0.000000
  0.000000  0.250000  0.000000
  0.000000  0.240000  0.000000
  0.000000  0.230000  0.000000
  0.000000  0.220000  0.000000
  0.000000  0.210000  0.000000
  0.000000  0.200000  0.000000
  0.000000  0.190000  0.000000
  0.000000  0.180000  0.000000
  0.000000  0.170000  0.000000
  0.000000  0.160000  0.000000
  0.000000  0.150000  0.000000
  0.000000  0.140000  0.000000
  0.000000  0.130000  0.000000
  0.000000  0.120000  0.000000
  0.000000  0.110000  0.000000
  0.000000  0.100000  0.000000
  0.000000  0.090000  0.000000
  0.000000  0.080000  0.000000
  0.000000  0.070000  0.000000
  0.000000  0.060000  0.000000
  0.000000  0.050000  0.000000
  0.000000  0.040000  0.000000
  0.000000  0.030000  0.000000
  0.000000  0.020000  0.000000
  0.000000  0.010000  0.000000
 -0.100000  0.000000  0.000000
 -0.090000  0.000000  0.000000
 -0.080000  0.000000  0.000000
 -0.070000  0.000000  0.000000
 -0.060000  0.000000  0.000000
 -0.050000  0.000000  0.000000
 -0.040000  0.000000  0.000000
 -0.030000  0.000000  0.000000
 -0.020000  0.000000  0.000000
 -0.010000  0.000000  0.000000
 -0.000000  0.000000  0.000000
  0.010000  0.000000  0.000000
  0.020000  0.000000  0.000000
  0.030000  0.000000  0.000000
  0.040000  0.000000  0.000000
  0.050000  0.000000  0.000000
  0.060000  0.000000  0.000000
  0.070000  0.000000  0.000000
  0.080000  0.000000  0.000000
  0.090000  0.000000  0.000000
  0.100000  0.000000  0.000000
  0.110000  0.000000  0.000000
  0.120000  0.000000  0.000000
  0.130000  0.000000  0.000000
  0.140000  0.000000  0.000000
  0.150000  0.000000  0.000000
  0.160000  0.000000  0.000000
  0.170000  0.000000  0.000000
  0.180000  0.000000  0.000000
  0.190000  0.000000  0.000000
  0.200000  0.000000  0.000000
  0.210000  0.000000  0.000000
  0.220000  0.000000  0.000000
  0.230000  0.000000  0.000000
  0.240000  0.000000  0.000000
  0.250000  0.000000  0.000000
  0.260000  0.000000  0.000000
  0.270000  0.000000  0.000000
  0.280000  0.000000  0.000000
  0.290000  0.000000  0.000000
  0.300000  0.000000  0.000000
  0.310000  0.000000  0.000000
  0.320000  0.000000  0.000000
  0.330000  0.000000  0.000000
  0.340000  0.000000  0.000000
  0.350000  0.000000  0.000000
  0.360000  0.000000  0.000000
  0.370000  0.000000  0.000000
  0.380000  0.000000  0.000000
  0.390000  0.000000  0.000000
  0.400000  0.000000  0.000000
  0.410000  0.000000  0.000000
  0.420000  0.000000  0.000000
  0.430000  0.000000  0.000000
  0.440000  0.000000  0.000000
  0.450000  0.000000  0.000000
  0.460000  0.000000  0.000000
  0.470000  0.000000  0.000000
  0.480000  0.000000  0.000000
  0.490000  0.000000  0.000000
  0.500000  0.000000  0.000000
  0.510000  0.000000  0.000000
  0.520000  0.000000  0.000000
  0.530000  0.000000  0.000000
  0.540000  0.000000  0.000000
  0.550000  0.000000  0.000000
  0.560000  0.000000  0.000000
  0.570000  0.000000  0.000000
  0.580000  0.000000  0.000000
  0.590000  0.000000  0.000000
  0.600000  0.000000  0.000000
  0.610000  0.000000  0.000000
  0.620000  0.000000  0.000000
  0.630000  0.000000  0.000000
  0.640000  0.000000  0.000000
  0.650000  0.000000  0.000000
  0.660000  0.000000  0.000000
  0.670000  0.000000  0.000000
  0.680000  0.000000  0.000000
  0.690000  0.000000  0.000000
  0.700000  0.000000  0.000000
  0.710000  0.000000  0.000000
  0.720000  0.000000  0.000000
  0.730000  0.000000  0.000000
  0.740000  0.000000  0.000000
  0.750000  0.000000  0.000000
  0.760000  0.000000  0.000000
  0.770000  0.000000  0.000000
  0.780000  0.000000  0.000000
  0.790000  0.000000  0.000000
  0.800000  0.000000  0.000000
  0.700000  0.010000  0.000000
  0.700000  0.020000  0.000000
  0.700000  0.030000  0.000000
  0.700000  0.040000  0.000000
  0.700000  0.050000  0.000000
  0.700000  0.060000  0.000000
  0.700000  0.070000  0.000000
  0.700000  0.080000  0.000000
  0.700000  0.090000  0.000000
  0.700000  0.100000  0.000000
  0.700000  0.110000  0.000000
  0.700000  0.120000  0.000000
  0.700000  0.130000  0.000000
  0.700000  0.140000  0.000000
  0.700000  0.150000  0.000000
  0.700000  0.160000  0.000000
  0.700000  0.170000  0.000000
  0.700000  0.180000  0.000000
  0.700000  0.190000  0.000000
  0.700000  0.200000  0.000000
  0.700000  0.210000  0.000000
  0.700000  0.220000  0.000000
  0.700000  0.230000  0.000000
  0.700000  0.240000  0.000000
  0.700000  0.250000  0.000000
  0.700000  0.260000  0.000000
  0.700000  0.270000  0.000000
  0.700000  0.280000  0.000000
  0.700000  0.290000  0.000000
  0.700000  0.300000  0.000000
  0.700000  0.310000  0.000000
  0.700000  0.320000  0.000000
  0.700000  0.330000  0.000000
  0.700000  0.340000  0.000000
  0.700000  0.350000  0.000000
  0.700000  0.360000  0.000000
  0.700000  0.370000  0.000000
  0.700000  0.380000  0.000000
  0.700000  0.390000  0.000000
  0.700000  0.400000  0.000000
  0.700000  0.410000  0.000000
  0.700000  0.420000  0.000000
  0.700000  0.430000  0.000000
  0.700000  0.440000  0.000000
  0.700000  0.450000  0.000000
  0.700000  0.460000  0.000000
  0.700000  0.470000  0.000000
  0.700000  0.480000  0.000000
  0.700000  0.490000  0.000000
  0.700000  0.500000  0.000000
  0.011315  0.008822  0.000000
  0.020759  0.015769  0.000000
  0.029686  0.016995  0.000000
  0.010182  0.016745  0.000000
  0.018017  0.026986  0.000000
  0.009328  0.027712  0.000000
  0.027670  0.026222  0.000000
  0.029937  0.035283  0.000000
  0.038065  0.035660  0.000000
  0.018594  0.036684  0.000000
  0.028493  0.044451  0.000000
  0.009130  0.039586  0.000000
  0.011056  0.049453  0.000000
  0.009669  0.058648  0.000000
  0.008991  0.071014  0.000000
  0.016830  0.076169  0.000000
  0.021460  0.082133  0.000000
  0.009528  0.082962  0.000000
  0.017475  0.095385  0.000000
  0.008998  0.094441  0.000000
  0.012911  0.105429  0.000000
  0.010718  0.110261  0.000000
  0.010390  0.121562  0.000000
  0.011807  0.126603  0.000000
  0.010007  0.136302  0.000000
  0.015095  0.143423  0.000000
  0.010924  0.146908  0.000000
  0.019507  0.157095  0.000000
  0.007624  0.159424  0.000000
  0.022557  0.160252  0.000000
  0.040583  0.010214  0.000000
  0.027484  0.008210  0.000000
  0.048967  0.009753  0.000000
  0.040643  0.019879  0.000000
  0.053322  0.018594  0.000000
  0.053277  0.030940  0.000000
  0.069240  0.026782  0.000000
  0.042835  0.025796  0.000000
  0.046863  0.050080  0.000000
  0.042858  0.044004  0.000000
  0.036727  0.054758  0.000000
  0.019619  0.047575  0.000000
  0.038293  0.061697  0.000000
  0.028089  0.053666  0.000000
  0.047487  0.067871  0.000000
  0.017537  0.062943  0.000000
  0.023215  0.063649  0.000000
  0.030812  0.074949  0.000000
  0.035253  0.084829  0.000000
  0.022562  0.090489  0.000000
  0.031646  0.101059  0.000000
  0.029036  0.103813  0.000000
  0.022464  0.111655  0.000000
  0.029237  0.115806  0.000000
  0.023558  0.123060  0.000000
  0.028077  0.128720  0.000000
  0.025367  0.134680  0.000000
  0.028913  0.141777  0.000000
  0.028069  0.147574  0.000000
  0.029477  0.161678  0.000000
  0.078237  0.008833  0.000000
  0.062002  0.008568  0.000000
  0.067368  0.014585  0.000000
  0.060150  0.020918  0.000000
  0.075637  0.025089  0.000000
  0.087158  0.025066  0.000000
  0.103452  0.025929  0.000000
  0.076717  0.036715  0.000000
  0.078485  0.046504  0.000000
  0.049368  0.035869  0.000000
  0.063953  0.048375  0.000000
  0.062020  0.041196  0.000000
  0.052314  0.061335  0.000000
  0.052431  0.074874  0.000000
  0.065936  0.076074  0.000000
  0.032215  0.069815  0.000000
  0.053386  0.083461  0.000000
  0.042806  0.077588  0.000000
  0.046450  0.089382  0.000000
  0.035578  0.091048  0.000000
  0.046448  0.099282  0.000000
  0.044962  0.103558  0.000000
  0.043374  0.112362  0.000000
  0.039611  0.117642  0.000000
  0.044053  0.124325  0.000000
  0.042695  0.130567  0.000000
  0.042186  0.137338  0.000000
  0.042162  0.144115  0.000000
  0.040168  0.153651  0.000000
  0.037026  0.157930  0.000000
  0.103980  0.009846  0.000000
  0.091723  0.009706  0.000000
  0.105013  0.021428  0.000000
  0.079425  0.014992  0.000000
  0.106743  0.036250  0.000000
  0.093710  0.015310  0.000000
  0.096411  0.036804  0.000000
  0.090301  0.027176  0.000000
  0.084698  0.050152  0.000000
  0.064171  0.035728  0.000000
  0.097068  0.050444  0.000000
  0.067736  0.056686  0.000000
  0.087018  0.059170  0.000000
  0.054510  0.051551  0.000000
  0.060510  0.064946  0.000000
  0.074662  0.058301  0.000000
  0.069288  0.067865  0.000000
  0.072809  0.081406  0.000000
  0.064822  0.085466  0.000000
  0.058615  0.092153  0.000000
  0.065633  0.100505  0.000000
  0.059742  0.101344  0.000000
  0.056265  0.113126  0.000000
  0.060588  0.113041  0.000000
  0.058955  0.122575  0.000000
  0.057181  0.128676  0.000000
  0.057463  0.136674  0.000000
  0.054628  0.144037  0.000000
  0.052526  0.152039  0.000000
  0.054352  0.159339  0.000000
  0.128400  0.008897  0.000000
  0.113317  0.009487  0.000000
  0.127158  0.016401  0.000000
  0.115735  0.016659  0.000000
  0.138327  0.022638  0.000000
  0.118991  0.025649  0.000000
  0.114936  0.033751  0.000000
  0.127246  0.035682  0.000000
  0.082717  0.038646  0.000000
  0.117183  0.045425  0.000000
  0.097554  0.042301  0.000000
  0.114405  0.046344  0.000000
  0.105282  0.053375  0.000000
  0.094078  0.062040  0.000000
  0.101814  0.069655  0.000000
  0.080827  0.067536  0.000000
  0.090311  0.073113  0.000000
  0.082833  0.075633  0.000000
  0.088250  0.089713  0.000000
  0.079199  0.087443  0.000000
  0.075709  0.096312  0.000000
  0.079148  0.101372  0.000000
  0.076598  0.108211  0.000000
  0.074330  0.114968  0.000000
  0.075100  0.120055  0.000000
  0.071569  0.128282  0.000000
  0.069483  0.133689  0.000000
  0.068671  0.142669  0.000000
  0.067034  0.149716  0.000000
  0.063466  0.155425  0.000000
  0.149438  0.008719  0.000000
  0.137695  0.011269  0.000000
  0.157676  0.023303  0.000000
  0.144373  0.019608  0.000000
  0.178721  0.016991  0.000000
  0.150913  0.030699  0.000000
  0.167501  0.021354  0.000000
  0.127341  0.027161  0.000000
  0.139883  0.032231  0.000000
  0.149201  0.042008  0.000000
  0.138252  0.050118  0.000000
  0.139022  0.039258  0.000000
  0.129417  0.044877  0.000000
  0.116866  0.061566  0.000000
  0.105485  0.060778  0.000000
  0.113351  0.071685  0.000000
  0.102453  0.078245  0.000000
  0.113626  0.077837  0.000000
  0.092755  0.083584  0.000000
  0.104824  0.088079  0.000000
  0.095930  0.094763  0.000000
  0.097289  0.101818  0.000000
  0.092723  0.106194  0.000000
  0.092843  0.112933  0.000000
  0.090540  0.119938  0.000000
  0.086697  0.126229  0.000000
  0.084893  0.132819  0.000000
  0.083416  0.139997  0.000000
  0.079129  0.149004  0.000000
  0.080878  0.154505  0.000000
  0.188970  0.008665  0.000000
  0.165232  0.011208  0.000000
  0.171835  0.009187  0.000000
  0.154173  0.013762  0.000000
  0.204540  0.026624  0.000000
  0.186095  0.016514  0.000000
  0.183829  0.027235  0.000000
  0.172652  0.027757  0.000000
  0.159253  0.031433  0.000000
  0.167319  0.041170  0.000000
  0.158911  0.042857  0.000000
  0.166170  0.052703  0.000000
  0.148127  0.054863  0.000000
  0.127799  0.053485  0.000000
  0.134584  0.060400  0.000000
  0.121440  0.061710  0.000000
  0.129794  0.070178  0.000000
  0.127050  0.076999  0.000000
  0.125848  0.084004  0.000000
  0.111749  0.088662  0.000000
  0.118616  0.094978  0.000000
  0.112580  0.099370  0.000000
  0.110341  0.106844  0.000000
  0.109998  0.112078  0.000000
  0.104205  0.117419  0.000000
  0.103339  0.125702  0.000000
  0.100064  0.131255  0.000000
  0.096184  0.138411  0.000000
  0.093780  0.146836  0.000000
  0.090923  0.151628  0.000000
  0.210425  0.010525  0.000000
  0.197890  0.012124  0.000000
  0.237157  0.019948  0.000000
  0.204055  0.016093  0.000000
  0.240424  0.026578  0.000000
  0.217829  0.014405  0.000000
  0.220863  0.028862  0.000000
  0.196124  0.024809  0.000000
  0.209695  0.033686  0.000000
  0.196928  0.034409  0.000000
  0.187003  0.033693  0.000000
  0.174206  0.035894  0.000000
  0.175221  0.047137  0.000000
  0.152162  0.051058  0.000000
  0.158615  0.063627  0.000000
  0.148866  0.066507  0.000000
  0.140626  0.065873  0.000000
  0.153651  0.073549  0.000000
  0.139354  0.077563  0.000000
  0.144149  0.081404  0.000000
  0.135596  0.088652  0.000000
  0.129670  0.092738  0.000000
  0.131303  0.102828  0.000000
  0.126843  0.105248  0.000000
  0.124751  0.113867  0.000000
  0.120747  0.120650  0.000000
  0.115535  0.126913  0.000000
  0.112068  0.135152  0.000000
  0.108266  0.144228  0.000000
  0.105533  0.150057  0.000000
  0.243094  0.012274  0.000000
  0.225825  0.011068  0.000000
  0.252710  0.010811  0.000000
  0.233168  0.011772  0.000000
  0.267676  0.019643  0.000000
  0.254122  0.015799  0.000000
  0.250647  0.025061  0.000000
  0.235333  0.031488  0.000000
  0.219472  0.022140  0.000000
  0.222575  0.033932  0.000000
  0.205515  0.040630  0.000000
  0.200995  0.050052  0.000000
  0.200819  0.055826  0.000000
  0.184597  0.044818  0.000000
  0.187541  0.057248  0.000000
  0.166885  0.058924  0.000000
  0.180054  0.057177  0.000000
  0.170619  0.067059  0.000000
  0.167719  0.074907  0.000000
  0.159952  0.079188  0.000000
  0.157790  0.086565  0.000000
  0.149823  0.090129  0.000000
  0.148673  0.096318  0.000000
  0.144734  0.102350  0.000000
  0.141722  0.108911  0.000000
  0.135464  0.117289  0.000000
  0.129989  0.124326  0.000000
  0.126124  0.132835  0.000000
  0.121860  0.141196  0.000000
  0.120168  0.146058  0.000000
  0.291417  0.011716  0.000000
  0.266342  0.010479  0.000000
  0.307048  0.015288  0.000000
  0.273579  0.013038  0.000000
  0.304263  0.031318  0.000000
  0.283496  0.010875  0.000000
  0.295684  0.024997  0.000000
  0.262628  0.026403  0.000000
  0.252932  0.036718  0.000000
  0.239186  0.039160  0.000000
  0.232737  0.043028  0.000000
  0.227900  0.050084  0.000000
  0.190592  0.045340  0.000000
  0.220081  0.043185  0.000000
  0.211883  0.048097  0.000000
  0.210409  0.059022  0.000000
  0.198898  0.067144  0.000000
  0.187180  0.064838  0.000000
  0.188973  0.073662  0.000000
  0.178172  0.072519  0.000000
  0.180868  0.081363  0.000000
  0.172919  0.085658  0.000000
  0.170227  0.093198  0.000000
  0.164140  0.098670  0.000000
  0.158143  0.105245  0.000000
  0.150281  0.113868  0.000000
  0.146261  0.120660  0.000000
  0.142246  0.127687  0.000000
  0.138018  0.136853  0.000000
  0.133256  0.141673  0.000000
  0.333468  0.011529  0.000000
  0.298611  0.012452  0.000000
  0.346259  0.010989  0.000000
  0.325853  0.011910  0.000000
  0.345212  0.015659  0.000000
  0.312208  0.009405  0.000000
  0.316395  0.019849  0.000000
  0.309278  0.024968  0.000000
  0.287859  0.023723  0.000000
  0.285936  0.037994  0.000000
  0.280506  0.022884  0.000000
  0.258865  0.033302  0.000000
  0.251317  0.044149  0.000000
  0.255995  0.053726  0.000000
  0.243828  0.049283  0.000000
  0.231830  0.060536  0.000000
  0.221725  0.055407  0.000000
  0.218321  0.064041  0.000000
  0.214345  0.072281  0.000000
  0.205498  0.070077  0.000000
  0.197588  0.080029  0.000000
  0.195309  0.083373  0.000000
  0.186622  0.090096  0.000000
  0.183355  0.095326  0.000000
  0.174277  0.101297  0.000000
  0.167433  0.109458  0.000000
  0.162366  0.115454  0.000000
  0.157632  0.123725  0.000000
  0.151879  0.135562  0.000000
  0.146373  0.138327  0.000000
  0.391552  0.012154  0.000000
  0.366598  0.012315  0.000000
  0.400991  0.012961  0.000000
  0.379348  0.011274  0.000000
  0.384926  0.013712  0.000000
  0.358407  0.010351  0.000000
  0.355483  0.019461  0.000000
  0.341268  0.028594  0.000000
  0.329288  0.018007  0.000000
  0.324733  0.026786  0.000000
  0.316254  0.036658  0.000000
  0.292934  0.035702  0.000000
  0.275082  0.030281  0.000000
  0.282109  0.047800  0.000000
  0.266388  0.041994  0.000000
  0.264432  0.052475  0.000000
  0.256367  0.063029  0.000000
  0.244610  0.056221  0.000000
  0.247056  0.068429  0.000000
  0.237026  0.063113  0.000000
  0.228633  0.071891  0.000000
  0.226409  0.077194  0.000000
  0.211093  0.080376  0.000000
  0.207052  0.091588  0.000000
  0.196346  0.097110  0.000000
  0.186687  0.105313  0.000000
  0.181171  0.112015  0.000000
  0.173622  0.119178  0.000000
  0.167341  0.127538  0.000000
  0.162752  0.133096  0.000000
  0.479152  0.012256  0.000000
  0.435016  0.011452  0.000000
  0.445107  0.013519  0.000000
  0.419917  0.010088  0.000000
  0.429627  0.013669  0.000000
  0.406614  0.011189  0.000000
  0.392311  0.027227  0.000000
  0.389327  0.028063  0.000000
  0.371964  0.018326  0.000000
  0.362005  0.025529  0.000000
  0.346374  0.026825  0.000000
  0.335032  0.033381  0.000000
  0.322744  0.033294  0.000000
  0.326345  0.047242  0.000000
  0.300877  0.039448  0.000000
  0.298155  0.050981  0.000000
  0.290317  0.050846  0.000000
  0.274732  0.036176  0.000000
  0.273371  0.048348  0.000000
  0.278243  0.057552  0.000000
  0.264642  0.063370  0.000000
  0.251699  0.073735  0.000000
  0.237816  0.076009  0.000000
  0.220698  0.085381  0.000000
  0.214572  0.089598  0.000000
  0.205768  0.098598  0.000000
  0.198679  0.106018  0.000000
  0.189978  0.113488  0.000000
  0.183755  0.124837  0.000000
  0.175971  0.128470  0.000000
  0.520653  0.012219  0.000000
  0.485044  0.013316  0.000000
  0.500005  0.010903  0.000000
  0.468193  0.013481  0.000000
  0.485797  0.024679  0.000000
  0.452063  0.010400  0.000000
  0.431305  0.026933  0.000000
  0.436106  0.035025  0.000000
  0.403173  0.022075  0.000000
  0.413788  0.027644  0.000000
  0.400267  0.037668  0.000000
  0.374983  0.026193  0.000000
  0.363021  0.031849  0.000000
  0.369965  0.041237  0.000000
  0.349610  0.038959  0.000000
  0.333608  0.042984  0.000000
  0.338185  0.056511  0.000000
  0.311714  0.042867  0.000000
  0.314965  0.055956  0.000000
  0.307162  0.050443  0.000000
  0.291548  0.062726  0.000000
  0.277884  0.063969  0.000000
  0.268214  0.071232  0.000000
  0.248894  0.081252  0.000000
  0.238920  0.084797  0.000000
  0.230343  0.093403  0.000000
  0.220886  0.102517  0.000000
  0.209943  0.108622  0.000000
  0.201271  0.118194  0.000000
  0.193581  0.123176  0.000000
  0.571566  0.010077  0.000000
  0.539728  0.014103  0.000000
  0.554531  0.010468  0.000000
  0.535038  0.010450  0.000000
  0.508916  0.027296  0.000000
  0.509549  0.011384  0.000000
  0.464349  0.011511  0.000000
  0.476897  0.037957  0.000000
  0.440974  0.024127  0.000000
  0.452246  0.018731  0.000000
  0.447881  0.029139  0.000000
  0.416904  0.016731  0.000000
  0.423908  0.023715  0.000000
  0.418671  0.033655  0.000000
  0.378240  0.031866  0.000000
  0.386840  0.039584  0.000000
  0.377383  0.042277  0.000000
  0.356786  0.038587  0.000000
  0.353451  0.051227  0.000000
  0.342470  0.041992  0.000000
  0.324543  0.051109  0.000000
  0.304406  0.060134  0.000000
  0.293091  0.067165  0.000000
  0.282214  0.070848  0.000000
  0.264173  0.077092  0.000000
  0.256808  0.087616  0.000000
  0.236085  0.090613  0.000000
  0.228260  0.101010  0.000000
  0.220957  0.116129  0.000000
  0.209111  0.116239  0.000000
  0.599116  0.010220  0.000000
  0.587163  0.011490  0.000000
  0.560248  0.017459  0.000000
  0.566668  0.031232  0.000000
  0.552408  0.013894  0.000000
  0.521729  0.013647  0.000000
  0.542499  0.027276  0.000000
  0.525280  0.025517  0.000000
  0.494923  0.013450  0.000000
  0.505311  0.020982  0.000000
  0.493866  0.026759  0.000000
  0.478022  0.023339  0.000000
  0.463388  0.027676  0.000000
  0.466822  0.023918  0.000000
  0.448238  0.040510  0.000000
  0.427355  0.041243  0.000000
  0.417053  0.044829  0.000000
  0.404871  0.030407  0.000000
  0.397966  0.043072  0.000000
  0.379051  0.052694  0.000000
  0.363487  0.047466  0.000000
  0.344692  0.056649  0.000000
  0.327977  0.062354  0.000000
  0.317751  0.067103  0.000000
  0.301977  0.071450  0.000000
  0.281497  0.079792  0.000000
  0.264969  0.083302  0.000000
  0.253298  0.096376  0.000000
  0.238855  0.105090  0.000000
  0.224531  0.111165  0.000000
  0.625685  0.016630  0.000000
  0.635835  0.018179  0.000000
  0.630174  0.010497  0.000000
  0.598236  0.018662  0.000000
  0.600438  0.033707  0.000000
  0.577492  0.014689  0.000000
  0.586887  0.017182  0.000000
  0.569602  0.019386  0.000000
  0.553798  0.045579  0.000000
  0.551965  0.029643  0.000000
  0.536074  0.020104  0.000000
  0.519752  0.026749  0.000000
  0.518290  0.038907  0.000000
  0.507860  0.033684  0.000000
  0.493259  0.032087  0.000000
  0.487681  0.040298  0.000000
  0.458210  0.043124  0.000000
  0.455535  0.032023  0.000000
  0.437480  0.043899  0.000000
  0.415756  0.044680  0.000000
  0.393597  0.048159  0.000000
  0.388153  0.057619  0.000000
  0.367967  0.055249  0.000000
  0.357228  0.064100  0.000000
  0.331368  0.071663  0.000000
  0.315777  0.067082  0.000000
  0.301782  0.078272  0.000000
  0.280069  0.083286  0.000000
  0.262183  0.098398  0.000000
  0.247895  0.101065  0.000000
  0.661619  0.011588  0.000000
  0.671903  0.019246  0.000000
  0.657319  0.014365  0.000000
  0.642690  0.011577  0.000000
  0.648338  0.011883  0.000000
  0.616475  0.011501  0.000000
  0.606378  0.014561  0.000000
  0.615606  0.018964  0.000000
  0.573831  0.032798  0.000000
  0.572135  0.055268  0.000000
  0.589338  0.039826  0.000000
  0.584979  0.028042  0.000000
  0.580037  0.037527  0.000000
  0.562526  0.051263  0.000000
  0.536065  0.033469  0.000000
  0.528130  0.037128  0.000000
  0.509844  0.042554  0.000000
  0.494085  0.047378  0.000000
  0.474326  0.041094  0.000000
  0.462257  0.052309  0.000000
  0.447381  0.049166  0.000000
  0.436725  0.055815  0.000000
  0.409030  0.056960  0.000000
  0.398607  0.057170  0.000000
  0.374120  0.062651  0.000000
  0.356791  0.058474  0.000000
  0.335279  0.081205  0.000000
  0.307074  0.088625  0.000000
  0.278749  0.093548  0.000000
  0.267850  0.095092  0.000000
  0.686263  0.017298  0.000000
  0.673959  0.008145  0.000000
  0.680482  0.014623  0.000000
  0.679100  0.033833  0.000000
  0.677741  0.047591  0.000000
  0.666120  0.023199  0.000000
  0.640110  0.040705  0.000000
  0.649755  0.025230  0.000000
  0.638370  0.027479  0.000000
  0.637625  0.030996  0.000000
  0.624085  0.029766  0.000000
  0.615121  0.028171  0.000000
  0.602173  0.027385  0.000000
  0.593481  0.044910  0.000000
  0.559673  0.028547  0.000000
  0.574276  0.043364  0.000000
  0.543745  0.036197  0.000000
  0.545041  0.048253  0.000000
  0.519390  0.054409  0.000000
  0.509039  0.053008  0.000000
  0.486339  0.054746  0.000000
  0.466704  0.039903  0.000000
  0.462387  0.060793  0.000000
  0.426142  0.056220  0.000000
  0.412423  0.059600  0.000000
  0.400074  0.065555  0.000000
  0.374699  0.071504  0.000000
  0.339203  0.063688  0.000000
  0.306131  0.081147  0.000000
  0.290197  0.085234  0.000000
  0.674492  0.069004  0.000000
  0.691665  0.016140  0.000000
  0.685306  0.041724  0.000000
  0.687756  0.063563  0.000000
  0.691736  0.039320  0.000000
  0.664715  0.035162  0.000000
  0.678152  0.029638  0.000000
  0.656505  0.028887  0.000000
  0.668211  0.036549  0.000000
  0.641153  0.043205  0.000000
  0.652747  0.038359  0.000000
  0.621589  0.036137  0.000000
  0.616098  0.048643  0.000000
  0.606576  0.046559  0.000000
  0.611591  0.038460  0.000000
  0.596240  0.046874  0.000000
  0.578725  0.055028  0.000000
  0.557578  0.044970  0.000000
  0.533264  0.049836  0.000000
  0.536046  0.050167  0.000000
  0.520046  0.049590  0.000000
  0.500382  0.046709  0.000000
  0.484728  0.050088  0.000000
  0.462392  0.057160  0.000000
  0.446079  0.055226  0.000000
  0.421942  0.059810  0.000000
  0.387498  0.063147  0.000000
  0.368985  0.068754  0.000000
  0.340184  0.075251  0.000000
  0.323489  0.077586  0.000000
 -0.010000  0.500000  0.000000
 -0.010000  0.490000  0.000000
 -0.010000  0.480000  0.000000
 -0.010000  0.470000  0.000000
 -0.010000  0.460000  0.000000
 -0.010000  0.450000  0.000000
 -0.010000  0.440000  0.000000
 -0.010000  0.430000  0.000000
 -0.010000  0.420000  0.000000
 -0.010000  0.410000  0.000000
 -0.010000  0.400000  0.000000
 -0.010000  0.390000  0.000000
 -0.010000  0.380000  0.000000
 -0.010000  0.370000  0.000000
 -0.010000  0.360000  0.000000
 -0.010000  0.350000  0.000000
 -0.010000  0.340000  0.000000
 -0.010000  0.330000  0.000000
 -0.010000  0.320000  0.000000
 -0.010000  0.310000  0.000000
 -0.010000  0.300000  0.000000
 -0.010000  0.290000  0.000000
 -0.010000  0.280000  0.000000
 -0.010000  0.270000  0.000000
 -0.010000  0.260000  0.000000
 -0.010000  0.250000  0.000000
 -0.010000  0.240000  0.000000
 -0.010000  0.230000  0.000000
 -0.010000  0.220000  0.000000
 -0.010000  0.210000  0.000000
 -0.010000  0.200000  0.000000
 -0.010000  0.190000  0.000000
 -0.010000  0.180000  0.000000
 -0.010000  0.170000  0.000000
 -0.010000  0.160000  0.000000
 -0.010000  0.150000  0.000000
 -0.010000  0.140000  0.000000
 -0.010000  0.130000  0.000000
 -0.010000  0.120000  0.000000
 -0.010000  0.110000  0.000000
 -0.010000  0.100000  0.000000
 -0.010000  0.090000  0.000000
 -0.010000  0.080000  0.000000
 -0.010000  0.070000  0.000000
 -0.010000  0.060000  0.000000
 -0.010000  0.050000  0.000000
 -0.010000  0.040000  0.000000
 -0.010000  0.030000  0.000000
 -0.010000  0.020000  0.000000
 -0.010000  0.010000  0.000000
 -0.100000 -0.010000  0.000000
 -0.090000 -0.010000  0.000000
 -0.080000 -0.010000  0.000000
 -0.070000 -0.010000  0.000000
 -0.060000 -0.010000  0.000000
 -0.050000 -0.010000  0.000000
 -0.040000 -0.010000  0.000000
 -0.030000 -0.010000  0.000000