<?xml version="1.0" encoding="UTF-8"?>
<VTKFile type="UnstructuredGrid" version="1.0" byte_order="LittleEndian">
<UnstructuredGrid>
  <Piece NumberOfPoints="1555" NumberOfCells="1555">
      <PointData>
        <DataArray type="Int32" Name="Type" format="ascii">
 1 1 1 1 1 1 1 1 1 1
 1 1 1 1 1 1 1 1 1 1
 1 1 1 1 1 1 1 1 1 1
 1 1 1 1 1 1 1 1 1 1
 1 1 1 1 1 1 1 1 1 1
 1 1 1 1 1 1 1 1 1 1
 1 3 3 3 3 3 3 3 3 3
 3 3 3 3 3 3 3 3 3 3
 3 3 3 3 3 3 3 3 3 3
 3 3 3 3 3 3 3 3 3 3
 3 3 3 3 3 3 3 3 3 3
 3 3 3 3 3 3 3 3 3 3
 3 3 3 3 3 3 3 3 3 3
 1 1 1 1 1 1 1 1 1 1
 1 1 1 1 1 1 1 1 1 1
 1 1 1 1 1 1 1 1 1 1
 1 1 1 1 1 1 1 1 1 1
 1 1 1 1 1 1 1 1 1 1
 1 1 1 1 1 1 1 1 1 1
 1 2 2 2 2 2 2 2 2 2
 2 2 2 2 2 2 2 2 2 2
 2 2 2 2 2 2 2 2 2 2
 2 2 2 2 2 2 2 2 2 2
 2 2 2 2 2 2 2 2 2 2
 2 2 2 2 2 2 2 2 2 2
 2 2 2 2 2 2 2 2 2 2
 2 2 2 2 2 2 2 2 2 2
 2 2 2 2 2 2 2 2 2 2
 2 2 2 2 2 2 2 2 2 2
 2 2 2 2 2 2 2 2 2 2
 2 2 2 2 2 2 2 2 2 2
 2 2 2 2 2 2 2 2 2 2
 2 2 2 2 2 2 2 2 2 2
 2 2 2 2 2 2 2 2 2 2
 2 2 2 2 2 2 2 2 2 2
 2 2 2 2 2 2 2 2 2 2
 2 2 2 2 2 2 2 2 2 2
 2 2 2 2 2 2 2 2 2 2
 2 2 2 2 2 2 2 2 2 2
 2 2 2 2 2 2 2 2 2 2
 2 2 2 2 2 2 2 2 2 2
 2 2 2 2 2 2 2 2 2 2
 2 2 2 2 2 2 2 2 2 2
 2 2 2 2 2 2 2 2 2 2
 2 2 2 2 2 2 2 2 2 2
 2 2 2 2 2 2 2 2 2 2
 2 2 2 2 2 2 2 2 2 2
 2 2 2 2 2 2 2 2 2 2
 2 2 2 2 2 2 2 2 2 2
 2 2 2 2 2 2 2 2 2 2
 2 2 2 2 2 2 2 2 2 2
 2 2 2 2 2 2 2 2 2 2
 2 2 2 2 2 2 2 2 2 2
 2 2 2 2 2 2 2 2 2 2
 2 2 2 2 2 2 2 2 2 2
 2 2 2 2 2 2 2 2 2 2
 2 2 2 2 2 2 2 2 2 2
 2 2 2 2 2 2 2 2 2 2
 2 2 2 2 2 2 2 2 2 2
 2 2 2 2 2 2 2 2 2 2
 2 2 2 2 2 2 2 2 2 2
 2 2 2 2 2 2 2 2 2 2
 2 2 2 2 2 2 2 2 2 2
 2 2 2 2 2 2 2 2 2 2
 2 2 2 2 2 2 2 2 2 2
 2 2 2 2 2 2 2 2 2 2
 2 2 2 2 2 2 2 2 2 2
 2 2 2 2 2 2 2 2 2 2
 2 2 2 2 2 2 2 2 2 2
 2 2 2 2 2 2 2 2 2 2
 2 2 2 2 2 2 2 2 2 2
 2 2 2 2 2 2 2 2 2 2
 2 2 2 2 2 2 2 2 2 2
 2 2 2 2 2 2 2 2 2 2
 2 2 2 2 2 2 2 2 2 2
 2 2 2 2 2 2 2 2 2 2
 2 2 2 2 2 2 2 2 2 2
 2 2 2 2 2 2 2 2 2 2
 2 2 2 2 2 2 2 2 2 2
 2 0 0 0 0 0 0 0 0 0
 0 0 0 0 0 0 0 0 0 0
 0 0 0 0 0 0 0 0 0 0
 0 0 0 0 0 0 0 0 0 0
 0 0 0 0 0 0 0 0 0 0
 0 0 0 0 0 0 0 0 0 0
 0 0 0 0 0 0 0 0 0 0
 0 0 0 0 0 0 0 0 0 0
 0 0 0 0 0 0 0 0 0 0
 0 0 0 0 0 0 0 0 0 0
 0 0 0 0 0 0 0 0 0 0
 0 0 0 0 0 0 0 0 0 0
 0 0 0 0 0 0 0 0 0 0
 0 0 0 0 0 0 0 0 0 0
 0 0 0 0 0 0 0 0 0 0
 0 0 0 0 0 0 0 0 0 0
 0 0 0 0 0 0 0 0 0 0
 0 0 0 0 0 0 0 0 0 0
 0 0 0 0 0 0 0 0 0 0
 0 0 0 0 0 0 0 0 0 0
 0 0 0 0 0 0 0 0 0 0
 0 0 0 0 0 0 0 0 0 0
 0 0 0 0 0 0 0 0 0 0
 0 0 0 0 0 0 0 0 0 0
 0 0 0 0 0 0 0 0 0 0
 0 0 0 0 0 0 0 0 0 0
 0 0 0 0 0 0 0 0 0 0
 0 0 0 0 0 0 0 0 0 0
 0 0 0 0 0 0 0 0 0 0
 0 0 0 0 0 0 0 0 0 0
 0 0 0 0 0 0 0 0 0 0
 0 0 0 0 0 0 0 0 0 0
 0 0 0 0 0 0 0 0 0 0
 0 0 0 0 0 0 0 0 0 0
 0 0 0 0 0 0 0 0 0 0
 0 0 0 0 0 0 0 0 0 0
 0 0 0 0 0 0 0 0 0 0
 0 0 0 0 0 0 0 0 0 0
 0 0 0 0 0 0 0 0 0 0
 0 0 0 0 0 0 0 0 0 0
 0 0 0 0 0 0 0 0 0 0
 0 0 0 0 0 0 0 0 0 0
 0 0 0 0 0 0 0 0 0 0
 0 0 0 0 0 0 0 0 0 0
 0 0 0 0 0 0 0 0 0 0
 0 0 0 0 0 0 0 0 0 0
 0 0 0 0 0 0 0 0 0 0
 0 0 0 0 0 0 0 0 0 0
 0 0 0 0 0 0 0 0 0 0
 0 0 0 0 0 0 0 0 0 0
 0 0 0 0 0 0 0 0 0 0
 0 0 0 0 0 0 0 0 0 0
 0 0 0 0 0 0 0 0 0 0
 0 0 0 0 0 0 0 0 0 0
 0 0 0 0 0 0 0 0 0 0
 0 0 0 0 0 0 0 0 0 0
 0 0 0 0 0 0 0 0 0 0
 0 0 0 0 0 0 0 0 0 0
 0 0 0 0 0 0 0 0 0 0
 0 0 0 0 0 0 0 0 0 0
 0 0 0 0 0 0 0 0 0 0
 0 0 0 0 0 0 0 0 0 0
 0 0 0 0 0 0 0 0 0 0
 0 0 0 0 0 0 0 0 0 0
 0 0 0 0 0 0 0 0 0 0
 0 0 0 0 0 0 0 0 0 0
 0 0 0 0 0 0 0 0 0 0
 0 0 0 0 0 0 0 0 0 0
 0 0 0 0 0 0 0 0 0 0
 0 0 0 0 0 0 0 0 0 0
 0 0 0 0 0 0 0 0 0 0
 0 0 0 0 0 0 0 0 0 0
 0 0 0 0 0 0 0 0 0 0
 0 0 0 0 0 0 0 0 0 0
 0 0 0 0 0 0 0 0 0 0
 0 0 0 0 0 0 0 0 0 0
 0 0 0 0 0
        </DataArray>
      </PointData>
      <Points>
        <DataArray type="Float32" NumberOfComponents="3" format="ascii">
  0.000000  0.500000  0.000000
  0.000000  0.490000  0.000000
  0.000000  0.480000  0.000000
  0.000000  0.470000  0.000000
  0.000000  0.460000  0.000000
  0.000000  0.450000  0.000000
  0.000000  0.440000  0.000000
  0.000000  0.430000  0.000000
  0.000000  0.420000  0.000000
  0.000000  0.410000  0.000000
  0.000000  0.400000  0.000000
  0.000000  0.390000  0.000000
  0.000000  0.380000  0.000000
  0.000000  0.370000  0.000000
  0.000000  0.360000  0.000000
  0.000000  0.350000  0.000000
  0.000000  0.340000  0.000000
  0.000000  0.330000  0.000000
  0.000000  0.320000  0.000000
  0.000000  0.310000  0.000000
  0.000000  0.300000  0.000000
  0.000000  0.290000  0.000000
  0.000000  0.280000  0.000000
  0.000000  0.270000  0.000000
  0.000000  0.260000  0.000000
  0.000000  0.250000  0.000000
  0.000000  0.240000  0.000000
  0.000000  0.230000  0.000000
  0.000000  0.220000  0.000000
  0.000000  0.210000  0.000000
  0.000000  0.200000  0.000000
  0.000000  0.190000  0.000000
  0.000000  0.180000  0.000000
  0.000000  0.170000  0.000000
  0.000000  0.160000  0.000000
  0.000000  0.150000  0.000000
  0.000000  0.140000  0.000000
  0.000000  0.130000  0.000000
  0.000000  0.120000  0.000000
  0.000000  0.110000  0.000000
  0.000000  0.100000  0.000000
  0.000000  0.090000  0.000000
  0.000000  0.080000  0.000000
  0.000000  0.070000  0.000000
  0.000000  0.060000  0.000000
  0.000000  0.050000  0.000000
  0.000000  0.040000  0.000000
  0.000000  0.030000  0.000000
  0.000000  0.020000  0.000000
  0.000000  0.010000  0.000000
 -0.100000  0.000000  0.000000
 -0.090000  0.000000  0.000000
 -0.080000  0.000000  0.000000
 -0.070000  0.000000  0.000000
 -0.060000  0.000000  0.000000
 -0.050000  0.000000  0.000000
 -0.040000  0.000000  0.000000
 -0.030000  0.000000  0.000000
 -0.020000  0.000000  0.000000
 -0.010000  0.000000  0.000000
 -0.000000  0.000000  0.000000
  0.010000  0.000000  0.000000
  0.020000  0.000000  0.000000
  0.030000  0.000000  0.000000
  0.040000  0.000000  0.000000
  0.050000  0.000000  0.000000
  0.060000  0.000000  0.000000
  0.070000  0.000000  0.000000
  0.080000  0.000000  0.000000
  0.090000  0.000000  0.000000
  0.100000  0.000000  0.000000
  0.110000  0.000000  0.000000
  0.120000  0.000000  0.000000
  0.130000  0.000000  0.000000
  0.140000  0.000000  0.000000
  0.150000  0.000000  0.000000
  0.160000  0.000000  0.000000
  0.170000  0.000000  0.000000
  0.180000  0.000000  0.000000
  0.190000  0.000000  0.000000
  0.200000  0.000000  0.000000
  0.210000  0.000000  0.000000
  0.220000  0.000000  0.000000
  0.230000  0.000000  0.000000
  0.240000  0.000000  0.000000
  0.250000  0.000000  0.000000
  0.260000  0.000000  0.000000
  0.270000  0.000000  0.000000
  0.280000  0.000000  0.000000
  0.290000  0.000000  0.000000
  0.300000  0.000000  0.000000
  0.310000  0.000000  0.000000
  0.320000  0.000000  0.000000
  0.330000  0.000000  0.000000
  0.340000  0.000000  0.000000
  0.350000  0.000000  0.000000
  0.360000  0.000000  0.000000
  0.370000  0.000000  0.000000
  0.380000  0.000000  0.000000
  0.390000  0.000000  0.000000
  0.400000  0.000000  0.000000
  0.410000  0.000000  0.000000
  0.420000  0.000000  0.000000
  0.430000  0.000000  0.000000
  0.440000  0.000000  0.000000
  0.450000  0.000000  0.000000
  0.460000  0.000000  0.000000
  0.470000  0.000000  0.000000
  0.480000  0.000000  0.000000
  0.490000  0.000000  0.000000
  0.500000  0.000000  0.000000
  0.510000  0.000000  0.000000
  0.520000  0.000000  0.000000
  0.530000  0.000000  0.000000
  0.540000  0.000000  0.000000
  0.550000  0.000000  0.000000
  0.560000  0.000000  0.000000
  0.570000  0.000000  0.000000
  0.580000  0.000000  0.000000
  0.590000  0.000000  0.000000
  0.600000  0.000000  0.000000
  0.610000  0.000000  0.000000
  0.620000  0.000000  0.000000
  0.630000  0.000000  0.000000
  0.640000  0.000000  0.000000
  0.650000  0.000000  0.000000
  0.660000  0.000000  0.000000
  0.670000  0.000000  0.000000
  0.680000  0.000000  0.000000
  0.690000  0.000000  0.000000
  0.700000  0.000000  0.000000
  0.710000  0.000000  0.000000
  0.720000  0.000000  0.000000
  0.730000  0.000000  0.000000
  0.740000  0.000000  0.000000
  0.750000  0.000000  0.000000
  0.760000  0.000000  0.000000
  0.770000  0.000000  0.000000
  0.780000  0.000000  0.000000
  0.790000  0.000000  0.000000
  0.800000  0.000000  0.000000
  0.700000  0.010000  0.000000
  0.700000  0.020000  0.000000
  0.700000  0.030000  0.000000
  0.700000  0.040000  0.000000
  0.700000  0.050000  0.000000
  0.700000  0.060000  0.000000
  0.700000  0.070000  0.000000
  0.700000  0.080000  0.000000
  0.700000  0.090000  0.000000
  0.700000  0.100000  0.000000
  0.700000  0.110000  0.000000
  0.700000  0.120000  0.000000
  0.700000  0.130000  0.000000
  0.700000  0.140000  0.000000
  0.700000  0.150000  0.000000
  0.700000  0.160000  0.000000
  0.700000  0.170000  0.000000
  0.700000  0.180000  0.000000
  0.700000  0.190000  0.000000
  0.700000  0.200000  0.000000
  0.700000  0.210000  0.000000
  0.700000  0.220000  0.000000
  0.700000  0.230000  0.000000
  0.700000  0.240000  0.000000
  0.700000  0.250000  0.000000
  0.700000  0.260000  0.000000
  0.700000  0.270000  0.000000
  0.700000  0.280000  0.000000
  0.700000  0.290000  0.000000
  0.700000  0.300000  0.000000
  0.700000  0.310000  0.000000
  0.700000  0.320000  0.000000
  0.700000  0.330000  0.000000
  0.700000  0.340000  0.000000
  0.700000  0.350000  0.000000
  0.700000  0.360000  0.000000
  0.700000  0.370000  0.000000
  0.700000  0.380000  0.000000
  0.700000  0.390000  0.000000
  0.700000  0.400000  0.000000
  0.700000  0.410000  0.000000
  0.700000  0.420000  0.000000
  0.700000  0.430000  0.000000
  0.700000  0.440000  0.000000
  0.700000  0.450000  0.000000
  0.700000  0.460000  0.000000
  0.700000  0.470000  0.000000
  0.700000  0.480000  0.000000
  0.700000  0.490000  0.000000
  0.700000  0.500000  0.000000
  0.015568  0.008515  0.000000
  0.022615  0.017304  0.000000
  0.034752  0.014679  0.000000
  0.008680  0.013715  0.000000
  0.020682  0.025423  0.000000
  0.011646  0.023361  0.000000
  0.030569  0.027229  0.000000
  0.038091  0.029773  0.000000
  0.048235  0.030535  0.000000
  0.028436  0.035889  0.000000
  0.039111  0.041120  0.000000
  0.009676  0.032503  0.000000
  0.010291  0.042032  0.000000
  0.008983  0.053674  0.000000
  0.009652  0.065930  0.000000
  0.020060  0.064821  0.000000
  0.030436  0.071985  0.000000
  0.013263  0.074369  0.000000
  0.021713  0.087984  0.000000
  0.008265  0.082801  0.000000
  0.015021  0.091107  0.000000
  0.008985  0.097440  0.000000
  0.009764  0.108876  0.000000
  0.013352  0.115596  0.000000
  0.009397  0.123475  0.000000
  0.018351  0.129841  0.000000
  0.010659  0.133373  0.000000
  0.020409  0.140724  0.000000
  0.010462  0.145330  0.000000
  0.025139  0.139958  0.000000
  0.041672  0.008967  0.000000
  0.028319  0.010062  0.000000
  0.054141  0.009265  0.000000
  0.044210  0.019894  0.000000
  0.061261  0.012193  0.000000
  0.061368  0.026449  0.000000
  0.076272  0.020861  0.000000
  0.050740  0.020137  0.000000
  0.052536  0.046957  0.000000
  0.047761  0.039568  0.000000
  0.038373  0.051622  0.000000
  0.019206  0.038153  0.000000
  0.049530  0.053753  0.000000
  0.029826  0.047171  0.000000
  0.050007  0.062282  0.000000
  0.016847  0.056627  0.000000
  0.020278  0.047542  0.000000
  0.031061  0.064032  0.000000
  0.042894  0.073572  0.000000
  0.021279  0.077218  0.000000
  0.039868  0.089178  0.000000
  0.032784  0.090600  0.000000
  0.021538  0.100167  0.000000
  0.032326  0.101321  0.000000
  0.021417  0.106914  0.000000
  0.032577  0.114759  0.000000
  0.024250  0.116765  0.000000
  0.030715  0.123725  0.000000
  0.029253  0.129815  0.000000
  0.035528  0.140994  0.000000
  0.087993  0.008211  0.000000
  0.071271  0.008672  0.000000
  0.079978  0.013478  0.000000
  0.065804  0.020417  0.000000
  0.089205  0.023396  0.000000
  0.102425  0.019367  0.000000
  0.118011  0.024126  0.000000
  0.091428  0.034921  0.000000
  0.081662  0.045669  0.000000
  0.060226  0.033646  0.000000
  0.071445  0.041844  0.000000
  0.079965  0.032556  0.000000
  0.061044  0.056034  0.000000
  0.060759  0.072254  0.000000
  0.074603  0.066450  0.000000
  0.031644  0.056855  0.000000
  0.059282  0.073925  0.000000
  0.044703  0.065706  0.000000
  0.045136  0.079238  0.000000
  0.030998  0.081081  0.000000
  0.053413  0.084879  0.000000
  0.051234  0.091819  0.000000
  0.047907  0.100152  0.000000
  0.037758  0.102838  0.000000
  0.050293  0.109836  0.000000
  0.043254  0.115451  0.000000
  0.044910  0.121106  0.000000
  0.047304  0.128141  0.000000
  0.045821  0.134327  0.000000
  0.042405  0.140125  0.000000
  0.121495  0.010543  0.000000
  0.102477  0.010064  0.000000
  0.120559  0.019204  0.000000
  0.091942  0.016937  0.000000
  0.119056  0.039690  0.000000
  0.110461  0.009915  0.000000
  0.113564  0.033284  0.000000
  0.106104  0.024286  0.000000
  0.100339  0.045402  0.000000
  0.075379  0.030271  0.000000
  0.107069  0.046937  0.000000
  0.069028  0.049278  0.000000
  0.098736  0.053991  0.000000
  0.062113  0.040819  0.000000
  0.064769  0.061919  0.000000
  0.086450  0.046385  0.000000
  0.074936  0.057844  0.000000
  0.083247  0.069977  0.000000
  0.073658  0.077241  0.000000
  0.066192  0.084315  0.000000
  0.079871  0.089180  0.000000
  0.063136  0.090753  0.000000
  0.056526  0.103379  0.000000
  0.070074  0.096455  0.000000
  0.064276  0.107885  0.000000
  0.061888  0.115097  0.000000
  0.064514  0.120382  0.000000
  0.062095  0.127716  0.000000
  0.058225  0.136706  0.000000
  0.061595  0.138191  0.000000
  0.145205  0.008417  0.000000
  0.130392  0.009362  0.000000
  0.147074  0.015462  0.000000
  0.136247  0.015483  0.000000
  0.157431  0.017014  0.000000
  0.132228  0.024994  0.000000
  0.129368  0.030320  0.000000
  0.140767  0.028997  0.000000
  0.094832  0.033245  0.000000
  0.136946  0.040891  0.000000
  0.106080  0.036018  0.000000
  0.128923  0.041391  0.000000
  0.120633  0.047933  0.000000
  0.110142  0.058017  0.000000
  0.117706  0.066063  0.000000
  0.085867  0.056965  0.000000
  0.102134  0.062692  0.000000
  0.090296  0.061733  0.000000
  0.098625  0.082159  0.000000
  0.091153  0.074782  0.000000
  0.079859  0.081014  0.000000
  0.091288  0.087589  0.000000
  0.086372  0.097271  0.000000
  0.074323  0.100376  0.000000
  0.083652  0.104892  0.000000
  0.079111  0.114197  0.000000
  0.077221  0.115813  0.000000
  0.077386  0.127051  0.000000
  0.075243  0.131881  0.000000
  0.069973  0.138440  0.000000
  0.169417  0.010974  0.000000
  0.161095  0.009035  0.000000
  0.182879  0.022801  0.000000
  0.168120  0.022112  0.000000
  0.204705  0.016940  0.000000
  0.172545  0.028522  0.000000
  0.192469  0.012170  0.000000
  0.150316  0.024623  0.000000
  0.158786  0.028509  0.000000
  0.175470  0.037344  0.000000
  0.158159  0.041820  0.000000
  0.163762  0.035868  0.000000
  0.148182  0.034983  0.000000
  0.133097  0.054788  0.000000
  0.120345  0.054853  0.000000
  0.125766  0.064554  0.000000
  0.109402  0.070143  0.000000
  0.133152  0.068822  0.000000
  0.098916  0.073173  0.000000
  0.116635  0.077499  0.000000
  0.109396  0.082644  0.000000
  0.111040  0.090042  0.000000
  0.096484  0.094312  0.000000
  0.103455  0.099197  0.000000
  0.100453  0.106542  0.000000
  0.093776  0.109956  0.000000
  0.093387  0.117354  0.000000
  0.092802  0.122961  0.000000
  0.087706  0.131601  0.000000
  0.090234  0.134486  0.000000
  0.219253  0.010846  0.000000
  0.183144  0.008645  0.000000
  0.198923  0.010656  0.000000
  0.177535  0.015660  0.000000
  0.240686  0.027189  0.000000
  0.212891  0.013435  0.000000
  0.218347  0.023916  0.000000
  0.195704  0.023938  0.000000
  0.188288  0.027960  0.000000
  0.194248  0.036753  0.000000
  0.184366  0.037818  0.000000
  0.188709  0.048205  0.000000
  0.167833  0.047691  0.000000
  0.144679  0.043092  0.000000
  0.152582  0.050062  0.000000
  0.136787  0.054416  0.000000
  0.143979  0.062030  0.000000
  0.147866  0.066024  0.000000
  0.135697  0.074933  0.000000
  0.125564  0.080287  0.000000
  0.137136  0.083660  0.000000
  0.124548  0.087749  0.000000
  0.118924  0.093781  0.000000
  0.123306  0.102579  0.000000
  0.112071  0.103584  0.000000
  0.117078  0.110008  0.000000
  0.112758  0.117643  0.000000
  0.108684  0.121661  0.000000
  0.105248  0.128950  0.000000
  0.100677  0.134985  0.000000
  0.234731  0.011361  0.000000
  0.227260  0.013913  0.000000
  0.273475  0.020554  0.000000
  0.241622  0.012574  0.000000
  0.281415  0.028394  0.000000
  0.251786  0.011511  0.000000
  0.257267  0.027017  0.000000
  0.230045  0.024063  0.000000
  0.244447  0.023417  0.000000
  0.228205  0.030713  0.000000
  0.212003  0.027326  0.000000
  0.204283  0.029234  0.000000
  0.203205  0.040870  0.000000
  0.175046  0.046909  0.000000
  0.180990  0.061386  0.000000
  0.165239  0.057446  0.000000
  0.154164  0.054355  0.000000
  0.172933  0.060545  0.000000
  0.157059  0.067985  0.000000
  0.164406  0.067612  0.000000
  0.152272  0.079840  0.000000
  0.147743  0.078232  0.000000
  0.147975  0.091092  0.000000
  0.136687  0.091989  0.000000
  0.140060  0.098428  0.000000
  0.133811  0.104695  0.000000
  0.130454  0.109519  0.000000
  0.126370  0.118744  0.000000
  0.122650  0.129805  0.000000
  0.120596  0.128232  0.000000
  0.281284  0.012273  0.000000
  0.263522  0.011258  0.000000
  0.287746  0.011378  0.000000
  0.271729  0.012672  0.000000
  0.303801  0.013373  0.000000
  0.294035  0.015922  0.000000
  0.289626  0.025765  0.000000
  0.266500  0.025478  0.000000
  0.254990  0.015624  0.000000
  0.260575  0.032972  0.000000
  0.232777  0.038841  0.000000
  0.232409  0.045836  0.000000
  0.224794  0.052114  0.000000
  0.213645  0.037592  0.000000
  0.215078  0.048461  0.000000
  0.185216  0.051822  0.000000
  0.201030  0.046241  0.000000
  0.198821  0.057156  0.000000
  0.191597  0.064416  0.000000
  0.181379  0.070363  0.000000
  0.178632  0.076889  0.000000
  0.166431  0.076267  0.000000
  0.166166  0.083205  0.000000
  0.159135  0.088490  0.000000
  0.160264  0.096510  0.000000
  0.151715  0.100961  0.000000
  0.149375  0.108436  0.000000
  0.143239  0.115867  0.000000
  0.136856  0.122400  0.000000
  0.133733  0.128084  0.000000
  0.342177  0.011362  0.000000
  0.305113  0.011792  0.000000
  0.352624  0.012166  0.000000
  0.320475  0.015600  0.000000
  0.356378  0.029434  0.000000
  0.326100  0.010582  0.000000
  0.354570  0.027129  0.000000
  0.304763  0.029126  0.000000
  0.285643  0.035076  0.000000
  0.274286  0.035269  0.000000
  0.268680  0.041150  0.000000
  0.263052  0.046067  0.000000
  0.222503  0.040286  0.000000
  0.247808  0.034779  0.000000
  0.248516  0.040558  0.000000
  0.242289  0.049031  0.000000
  0.221547  0.063151  0.000000
  0.213682  0.054642  0.000000
  0.214795  0.066904  0.000000
  0.202528  0.059530  0.000000
  0.207171  0.070322  0.000000
  0.194602  0.073342  0.000000
  0.194180  0.077132  0.000000
  0.178855  0.083916  0.000000
  0.178680  0.090413  0.000000
  0.171958  0.096759  0.000000
  0.166827  0.104487  0.000000
  0.162367  0.109330  0.000000
  0.154435  0.118473  0.000000
  0.151789  0.119734  0.000000
  0.383463  0.011575  0.000000
  0.344281  0.016982  0.000000
  0.404157  0.014298  0.000000
  0.370489  0.009680  0.000000
  0.399074  0.009543  0.000000
  0.361876  0.013538  0.000000
  0.375614  0.017652  0.000000
  0.361732  0.019344  0.000000
  0.337118  0.027326  0.000000
  0.323820  0.034940  0.000000
  0.332621  0.012930  0.000000
  0.298592  0.027685  0.000000
  0.296017  0.040367  0.000000
  0.297721  0.052740  0.000000
  0.285556  0.045751  0.000000
  0.262779  0.055798  0.000000
  0.253985  0.047768  0.000000
  0.246089  0.056722  0.000000
  0.247446  0.065754  0.000000
  0.235435  0.058232  0.000000
  0.228380  0.071618  0.000000
  0.221908  0.075294  0.000000
  0.207410  0.078128  0.000000
  0.208456  0.084711  0.000000
  0.195359  0.090467  0.000000
  0.194233  0.092403  0.000000
  0.181750  0.098789  0.000000
  0.176779  0.110868  0.000000
  0.175516  0.122565  0.000000
  0.166323  0.120076  0.000000
  0.455322  0.014381  0.000000
  0.427054  0.013990  0.000000
  0.466284  0.010753  0.000000
  0.439385  0.011452  0.000000
  0.450489  0.010656  0.000000
  0.417011  0.011321  0.000000
  0.414765  0.014134  0.000000
  0.393577  0.021795  0.000000
  0.387925  0.014782  0.000000
  0.376497  0.025793  0.000000
  0.369968  0.037374  0.000000
  0.337439  0.026822  0.000000
  0.322681  0.026829  0.000000
  0.321568  0.043449  0.000000
  0.306725  0.037595  0.000000
  0.302427  0.044415  0.000000
  0.293637  0.057341  0.000000
  0.279749  0.047963  0.000000
  0.285236  0.060145  0.000000
  0.274399  0.053847  0.000000
  0.259250  0.060829  0.000000
  0.262540  0.068128  0.000000
  0.235013  0.063596  0.000000
  0.239668  0.078456  0.000000
  0.226237  0.083767  0.000000
  0.212488  0.089852  0.000000
  0.204369  0.096435  0.000000
  0.198177  0.102096  0.000000
  0.189015  0.108257  0.000000
  0.183771  0.113041  0.000000
  0.555285  0.010330  0.000000
  0.509389  0.015468  0.000000
  0.514690  0.011854  0.000000
  0.489533  0.012471  0.000000
  0.503529  0.010527  0.000000
  0.474269  0.013049  0.000000
  0.450917  0.025842  0.000000
  0.452577  0.023911  0.000000
  0.436442  0.014639  0.000000
  0.418185  0.025721  0.000000
  0.401499  0.023461  0.000000
  0.387102  0.030243  0.000000
  0.375323  0.030649  0.000000
  0.380315  0.045489  0.000000
  0.342002  0.039690  0.000000
  0.343823  0.047086  0.000000
  0.336016  0.038108  0.000000
  0.314933  0.018444  0.000000
  0.315697  0.030319  0.000000
  0.328157  0.048649  0.000000
  0.311255  0.052968  0.000000
  0.292395  0.067162  0.000000
  0.275886  0.063067  0.000000
  0.252165  0.073090  0.000000
  0.245458  0.076258  0.000000
  0.234534  0.083270  0.000000
  0.225246  0.091642  0.000000
  0.219823  0.097570  0.000000
  0.212007  0.113669  0.000000
  0.197906  0.110736  0.000000
  0.596677  0.011337  0.000000
  0.563076  0.012580  0.000000
  0.574514  0.011482  0.000000
  0.546588  0.014068  0.000000
  0.564638  0.029833  0.000000
  0.526678  0.011690  0.000000
  0.499831  0.025218  0.000000
  0.506900  0.034170  0.000000
  0.467012  0.022852  0.000000
  0.489984  0.028518  0.000000
  0.469139  0.032614  0.000000
  0.439960  0.027348  0.000000
  0.424063  0.027586  0.000000
  0.432547  0.040200  0.000000
  0.406110  0.031224  0.000000
  0.390235  0.037084  0.000000
  0.394787  0.051620  0.000000
  0.361726  0.041991  0.000000
  0.363803  0.051688  0.000000
  0.355479  0.038048  0.000000
  0.336958  0.055734  0.000000
  0.318209  0.049928  0.000000
  0.312691  0.060659  0.000000
  0.287058  0.075520  0.000000
  0.275846  0.071520  0.000000
  0.262847  0.079959  0.000000
  0.253799  0.090088  0.000000
  0.242546  0.093879  0.000000
  0.227938  0.104638  0.000000
  0.220623  0.104592  0.000000
  0.642291  0.010394  0.000000
  0.624827  0.017725  0.000000
  0.636385  0.013386  0.000000
  0.614626  0.012093  0.000000
  0.589718  0.027973  0.000000
  0.584764  0.011235  0.000000
  0.537641  0.012628  0.000000
  0.550837  0.038311  0.000000
  0.511079  0.026597  0.000000
  0.526006  0.014222  0.000000
  0.516554  0.030129  0.000000
  0.482032  0.012498  0.000000
  0.494477  0.016243  0.000000
  0.488085  0.027507  0.000000
  0.432099  0.025133  0.000000
  0.449030  0.037203  0.000000
  0.441820  0.036975  0.000000
  0.409284  0.033301  0.000000
  0.410158  0.047502  0.000000
  0.394901  0.037994  0.000000
  0.376142  0.045171  0.000000
  0.351412  0.049730  0.000000
  0.340522  0.061966  0.000000
  0.326821  0.060989  0.000000
  0.304656  0.065447  0.000000
  0.297310  0.074738  0.000000
  0.271619  0.073881  0.000000
  0.260760  0.084141  0.000000
  0.253698  0.102770  0.000000
  0.237870  0.098848  0.000000
  0.663882  0.016072  0.000000
  0.654144  0.011347  0.000000
  0.640387  0.020093  0.000000
  0.646513  0.046116  0.000000
  0.625200  0.010279  0.000000
  0.602458  0.012167  0.000000
  0.624091  0.027684  0.000000
  0.604364  0.027569  0.000000
  0.568990  0.014892  0.000000
  0.587527  0.016224  0.000000
  0.580409  0.024291  0.000000
  0.555580  0.029721  0.000000
  0.535398  0.026918  0.000000
  0.550269  0.019942  0.000000
  0.522482  0.037485  0.000000
  0.496711  0.043284  0.000000
  0.480917  0.040702  0.000000
  0.472540  0.022677  0.000000
  0.464713  0.036640  0.000000
  0.440508  0.051694  0.000000
  0.424942  0.038006  0.000000
  0.404409  0.044849  0.000000
  0.379114  0.056132  0.000000
  0.372166  0.061699  0.000000
  0.353944  0.057923  0.000000
  0.330075  0.066372  0.000000
  0.311416  0.069777  0.000000
  0.290780  0.086195  0.000000
  0.280823  0.090063  0.000000
  0.257104  0.092314  0.000000
  0.676094  0.032677  0.000000
  0.689223  0.049347  0.000000
  0.675294  0.017791  0.000000
  0.668790  0.026025  0.000000
  0.662147  0.062203  0.000000
  0.653382  0.017274  0.000000
  0.654041  0.029626  0.000000
  0.647323  0.030908  0.000000
  0.637185  0.061377  0.000000
  0.636392  0.032043  0.000000
  0.612206  0.016601  0.000000
  0.601835  0.024651  0.000000
  0.596672  0.040097  0.000000
  0.586526  0.032736  0.000000
  0.570169  0.027936  0.000000
  0.566464  0.038711  0.000000
  0.531784  0.038658  0.000000
  0.526629  0.026539  0.000000
  0.503340  0.041181  0.000000
  0.482250  0.036122  0.000000
  0.452943  0.045325  0.000000
  0.447529  0.050120  0.000000
  0.424600  0.045879  0.000000
  0.417715  0.064627  0.000000
  0.382833  0.064862  0.000000
  0.363691  0.057685  0.000000
  0.349625  0.066266  0.000000
  0.322654  0.070986  0.000000
  0.303626  0.083981  0.000000
  0.283936  0.084035  0.000000
  0.688642  0.018930  0.000000
  0.688146  0.103870  0.000000
  0.686991  0.042352  0.000000
  0.687615  0.010092  0.000000
  0.684935  0.033930  0.000000
  0.679687  0.013222  0.000000
  0.667673  0.010112  0.000000
  0.670233  0.038711  0.000000
  0.646003  0.039852  0.000000
  0.648090  0.065238  0.000000
  0.660189  0.048459  0.000000
  0.660628  0.031252  0.000000
  0.659533  0.042310  0.000000
  0.647250  0.059959  0.000000
  0.615724  0.030088  0.000000
  0.610448  0.035200  0.000000
  0.592314  0.042466  0.000000
  0.568096  0.048847  0.000000
  0.547565  0.033707  0.000000
  0.536918  0.046729  0.000000
  0.520109  0.043683  0.000000
  0.507293  0.060313  0.000000
  0.469644  0.053716  0.000000
  0.467114  0.043243  0.000000
  0.430980  0.053334  0.000000
  0.414899  0.047733  0.000000
  0.388770  0.066874  0.000000
  0.359085  0.073612  0.000000
  0.318792  0.081099  0.000000
  0.312653  0.079371  0.000000
  0.674067  0.089379  0.000000
  0.682685  0.060603  0.000000
  0.689884  0.027610  0.000000
  0.659201  0.158428  0.000000
  0.677424  0.163744  0.000000
  0.673743  0.125855  0.000000
  0.686147  0.139950  0.000000
  0.691493  0.064614  0.000000
  0.677256  0.064787  0.000000
  0.687847  0.073243  0.000000
  0.673863  0.061035  0.000000
  0.677316  0.044768  0.000000
  0.670726  0.050601  0.000000
  0.661450  0.078563  0.000000
  0.632500  0.028810  0.000000
  0.654189  0.056198  0.000000
  0.623761  0.038723  0.000000
  0.626307  0.051233  0.000000
  0.598939  0.055172  0.000000
  0.591916  0.051928  0.000000
  0.555195  0.057768  0.000000
  0.539106  0.025519  0.000000
  0.542006  0.051642  0.000000
  0.487363  0.053477  0.000000
  0.476110  0.055399  0.000000
  0.464529  0.053901  0.000000
  0.428874  0.061687  0.000000
  0.391560  0.055220  0.000000
  0.354851  0.076997  0.000000
  0.343477  0.073502  0.000000
  0.625857  0.211587  0.000000
  0.685951  0.081136  0.000000
  0.622717  0.183556  0.000000
  0.688565  0.323806  0.000000
  0.624644  0.196123  0.000000
  0.667955  0.166767  0.000000
  0.673048  0.115041  0.000000
  0.688501  0.113490  0.000000
  0.689478  0.163571  0.000000
  0.679558  0.121112  0.000000
  0.685488  0.157609  0.000000
  0.681037  0.100878  0.000000
  0.667092  0.105066  0.000000
  0.674572  0.098074  0.000000
  0.674582  0.083101  0.000000
  0.667586  0.083647  0.000000
  0.665105  0.070873  0.000000
  0.632882  0.048091  0.000000
  0.610990  0.047536  0.000000
  0.622262  0.048206  0.000000
  0.605257  0.045596  0.000000
  0.576688  0.038869  0.000000
  0.558958  0.044323  0.000000
  0.536891  0.050118  0.000000
  0.514042  0.051527  0.000000
  0.495438  0.051242  0.000000
  0.448193  0.059567  0.000000
  0.417142  0.059445  0.000000
  0.397796  0.062674  0.000000
  0.375021  0.074501  0.000000
 -0.010000  0.500000  0.000000
 -0.010000  0.490000  0.000000
 -0.010000  0.480000  0.000000
 -0.010000  0.470000  0.000000
 -0.010000  0.460000  0.000000
 -0.010000  0.450000  0.000000
 -0.010000  0.440000  0.000000
 -0.010000  0.430000  0.000000
 -0.010000  0.420000  0.000000
 -0.010000  0.410000  0.000000
 -0.010000  0.400000  0.000000
 -0.010000  0.390000  0.000000
 -0.010000  0.380000  0.000000
 -0.010000  0.370000  0.000000
 -0.010000  0.360000  0.000000
 -0.010000  0.350000  0.000000
 -0.010000  0.340000  0.000000
 -0.010000  0.330000  0.000000
 -0.010000  0.320000  0.000000
 -0.010000  0.310000  0.000000
 -0.010000  0.300000  0.000000
 -0.010000  0.290000  0.000000
 -0.010000  0.280000  0.000000
 -0.010000  0.270000  0.000000
 -0.010000  0.260000  0.000000
 -0.010000  0.250000  0.000000
 -0.010000  0.240000  0.000000
 -0.010000  0.230000  0.000000
 -0.010000  0.220000  0.000000
 -0.010000  0.210000  0.000000
 -0.010000  0.200000  0.000000
 -0.010000  0.190000  0.000000
 -0.010000  0.180000  0.000000
 -0.010000  0.170000  0.000000
 -0.010000  0.160000  0.000000
 -0.010000  0.150000  0.000000
 -0.010000  0.140000  0.000000
 -0.010000  0.130000  0.000000
 -0.010000  0.120000  0.000000
 -0.010000  0.110000  0.000000
 -0.010000  0.100000  0.000000
 -0.010000  0.090000  0.000000
 -0.010000  0.080000  0.000000
 -0.010000  0.070000  0.000000
 -0.010000  0.060000  0.000000
 -0.010000  0.050000  0.000000
 -0.010000  0.040000  0.000000
 -0.010000  0.030000  0.000000
 -0.010000  0.020000  0.000000
 -0.010000  0.010000  0.000000
 -0.100000 -0.010000  0.000000
 -0.090000 -0.010000  0.000000
 -0.080000 -0.010000  0.000000
 -0.070000 -0.010000  0.000000
 -0.060000 -0.010000  0.000000
 -0.050000 -0.010000  0.000000
 -0.040000 -0.010000  0.000000
 -0.030000 -0.010000  0.000000