<?xml version="1.0" encoding="UTF-8"?>
<VTKFile type="UnstructuredGrid" version="1.0" byte_order="LittleEndian">
<UnstructuredGrid>
  <Piece NumberOfPoints="1554" NumberOfCells="1554">
      <PointData>
        <DataArray type="Int32" Name="Type" format="ascii">
 1 1 1 1 1 1 1 1 1 1
 1 1 1 1 1 1 1 1 1 1
 1 1 1 1 1 1 1 1 1 1
 1 1 1 1 1 1 1 1 1 1
 1 1 1 1 1 1 1 1 1 1
 1 1 1 1 1 1 1 1 1 1
 1 3 3 3 3 3 3 3 3 3
 3 3 3 3 3 3 3 3 3 3
 3 3 3 3 3 3 3 3 3 3
 3 3 3 3 3 3 3 3 3 3
 3 3 3 3 3 3 3 3 3 3
 3 3 3 3 3 3 3 3 3 3
 3 3 3 3 3 3 3 3 3 3
 1 1 1 1 1 1 1 1 1 1
 1 1 1 1 1 1 1 1 1 1
 1 1 1 1 1 1 1 1 1 1
 1 1 1 1 1 1 1 1 1 1
 1 1 1 1 1 1 1 1 1 1
 1 1 1 1 1 1 1 1 1 1
 1 2 2 2 2 2 2 2 2 2
 2 2 2 2 2 2 2 2 2 2
 2 2 2 2 2 2 2 2 2 2
 2 2 2 2 2 2 2 2 2 2
 2 2 2 2 2 2 2 2 2 2
 2 2 2 2 2 2 2 2 2 2
 2 2 2 2 2 2 2 2 2 2
 2 2 2 2 2 2 2 2 2 2
 2 2 2 2 2 2 2 2 2 2
 2 2 2 2 2 2 2 2 2 2
 2 2 2 2 2 2 2 2 2 2
 2 2 2 2 2 2 2 2 2 2
 2 2 2 2 2 2 2 2 2 2
 2 2 2 2 2 2 2 2 2 2
 2 2 2 2 2 2 2 2 2 2
 2 2 2 2 2 2 2 2 2 2
 2 2 2 2 2 2 2 2 2 2
 2 2 2 2 2 2 2 2 2 2
 2 2 2 2 2 2 2 2 2 2
 2 2 2 2 2 2 2 2 2 2
 2 2 2 2 2 2 2 2 2 2
 2 2 2 2 2 2 2 2 2 2
 2 2 2 2 2 2 2 2 2 2
 2 2 2 2 2 2 2 2 2 2
 2 2 2 2 2 2 2 2 2 2
 2 2 2 2 2 2 2 2 2 2
 2 2 2 2 2 2 2 2 2 2
 2 2 2 2 2 2 2 2 2 2
 2 2 2 2 2 2 2 2 2 2
 2 2 2 2 2 2 2 2 2 2
 2 2 2 2 2 2 2 2 2 2
 2 2 2 2 2 2 2 2 2 2
 2 2 2 2 2 2 2 2 2 2
 2 2 2 2 2 2 2 2 2 2
 2 2 2 2 2 2 2 2 2 2
 2 2 2 2 2 2 2 2 2 2
 2 2 2 2 2 2 2 2 2 2
 2 2 2 2 2 2 2 2 2 2
 2 2 2 2 2 2 2 2 2 2
 2 2 2 2 2 2 2 2 2 2
 2 2 2 2 2 2 2 2 2 2
 2 2 2 2 2 2 2 2 2 2
 2 2 2 2 2 2 2 2 2 2
 2 2 2 2 2 2 2 2 2 2
 2 2 2 2 2 2 2 2 2 2
 2 2 2 2 2 2 2 2 2 2
 2 2 2 2 2 2 2 2 2 2
 2 2 2 2 2 2 2 2 2 2
 2 2 2 2 2 2 2 2 2 2
 2 2 2 2 2 2 2 2 2 2
 2 2 2 2 2 2 2 2 2 2
 2 2 2 2 2 2 2 2 2 2
 2 2 2 2 2 2 2 2 2 2
 2 2 2 2 2 2 2 2 2 2
 2 2 2 2 2 2 2 2 2 2
 2 2 2 2 2 2 2 2 2 2
 2 2 2 2 2 2 2 2 2 2
 2 2 2 2 2 2 2 2 2 2
 2 2 2 2 2 2 2 2 2 2
 2 2 2 2 2 2 2 2 2 2
 0 0 0 0 0 0 0 0 0 0
 0 0 0 0 0 0 0 0 0 0
 0 0 0 0 0 0 0 0 0 0
 0 0 0 0 0 0 0 0 0 0
 0 0 0 0 0 0 0 0 0 0
 0 0 0 0 0 0 0 0 0 0
 0 0 0 0 0 0 0 0 0 0
 0 0 0 0 0 0 0 0 0 0
 0 0 0 0 0 0 0 0 0 0
 0 0 0 0 0 0 0 0 0 0
 0 0 0 0 0 0 0 0 0 0
 0 0 0 0 0 0 0 0 0 0
 0 0 0 0 0 0 0 0 0 0
 0 0 0 0 0 0 0 0 0 0
 0 0 0 0 0 0 0 0 0 0
 0 0 0 0 0 0 0 0 0 0
 0 0 0 0 0 0 0 0 0 0
 0 0 0 0 0 0 0 0 0 0
 0 0 0 0 0 0 0 0 0 0
 0 0 0 0 0 0 0 0 0 0
 0 0 0 0 0 0 0 0 0 0
 0 0 0 0 0 0 0 0 0 0
 0 0 0 0 0 0 0 0 0 0
 0 0 0 0 0 0 0 0 0 0
 0 0 0 0 0 0 0 0 0 0
 0 0 0 0 0 0 0 0 0 0
 0 0 0 0 0 0 0 0 0 0
 0 0 0 0 0 0 0 0 0 0
 0 0 0 0 0 0 0 0 0 0
 0 0 0 0 0 0 0 0 0 0
 0 0 0 0 0 0 0 0 0 0
 0 0 0 0 0 0 0 0 0 0
 0 0 0 0 0 0 0 0 0 0
 0 0 0 0 0 0 0 0 0 0
 0 0 0 0 0 0 0 0 0 0
 0 0 0 0 0 0 0 0 0 0
 0 0 0 0 0 0 0 0 0 0
 0 0 0 0 0 0 0 0 0 0
 0 0 0 0 0 0 0 0 0 0
 0 0 0 0 0 0 0 0 0 0
 0 0 0 0 0 0 0 0 0 0
 0 0 0 0 0 0 0 0 0 0
 0 0 0 0 0 0 0 0 0 0
 0 0 0 0 0 0 0 0 0 0
 0 0 0 0 0 0 0 0 0 0
 0 0 0 0 0 0 0 0 0 0
 0 0 0 0 0 0 0 0 0 0
 0 0 0 0 0 0 0 0 0 0
 0 0 0 0 0 0 0 0 0 0
 0 0 0 0 0 0 0 0 0 0
 0 0 0 0 0 0 0 0 0 0
 0 0 0 0 0 0 0 0 0 0
 0 0 0 0 0 0 0 0 0 0
 0 0 0 0 0 0 0 0 0 0
 0 0 0 0 0 0 0 0 0 0
 0 0 0 0 0 0 0 0 0 0
 0 0 0 0 0 0 0 0 0 0
 0 0 0 0 0 0 0 0 0 0
 0 0 0 0 0 0 0 0 0 0
 0 0 0 0 0 0 0 0 0 0
 0 0 0 0 0 0 0 0 0 0
 0 0 0 0 0 0 0 0 0 0
 0 0 0 0 0 0 0 0 0 0
 0 0 0 0 0 0 0 0 0 0
 0 0 0 0 0 0 0 0 0 0
 0 0 0 0 0 0 0 0 0 0
 0 0 0 0 0 0 0 0 0 0
 0 0 0 0 0 0 0 0 0 0
 0 0 0 0 0 0 0 0 0 0
 0 0 0 0 0 0 0 0 0 0
 0 0 0 0 0 0 0 0 0 0
 0 0 0 0 0 0 0 0 0 0
 0 0 0 0 0 0 0 0 0 0
 0 0 0 0 0 0 0 0 0 0
 0 0 0 0 0 0 0 0 0 0
 0 0 0 0 0 0 0 0 0 0
 0 0 0 0
        </DataArray>
      </PointData>
      <Points>
        <DataArray type="Float32" NumberOfComponents="3" format="ascii">
  0.000000  0.500000  0.000000
  0.000000  0.490000  0.000000
  0.000000  0.480000  0.000000
  0.000000  0.470000  0.000000
  0.000000  0.460000  0.000000
  0.000000  0.450000  0.000000
  0.000000  0.440000  0.000000
  0.000000  0.430000  0.000000
  0.000000  0.420000  0.000000
  0.000000  0.410000  0.000000
  0.000000  0.400000  0.000000
  0.000000  0.390000  0.000000
  0.000000  0.380000  0.000000
  0.000000  0.370000  0.000000
  0.000000  0.360000  0.000000
  0.000000  0.350000  0.000000
  0.000000  0.340000  0.000000
  0.000000  0.330000  0.000000
  0.000000  0.320000  0.000000
  0.000000  0.310000  0.000000
  0.000000  0.300000  0.000000
  0.000000  0.290000  0.000000
  0.000000  0.280000  0.000000
  0.000000  0.270000  0.000000
  0.000000  0.260000  0.000000
  0.000000  0.250000  0.000000
  0.000000  0.240000  0.000000
  0.000000  0.230000  0.000000
  0.000000  0.220000  0.000000
  0.000000  0.210000  0.000000
  0.000000  0.200000  0.000000
  0.000000  0.190000  0.000000
  0.000000  0.180000  0.000000
  0.000000  0.170000  0.000000
  0.000000  0.160000  0.000000
  0.000000  0.150000  0.000000
  0.000000  0.140000  0.000000
  0.000000  0.130000  0.000000
  0.000000  0.120000  0.000000
  0.000000  0.110000  0.000000
  0.000000  0.100000  0.000000
  0.000000  0.090000  0.000000
  0.000000  0.080000  0.000000
  0.000000  0.070000  0.000000
  0.000000  0.060000  0.000000
  0.000000  0.050000  0.000000
  0.000000  0.040000  0.000000
  0.000000  0.030000  0.000000
  0.000000  0.020000  0.000000
  0.000000  0.010000  0.000000
 -0.100000  0.000000  0.000000
 -0.090000  0.000000  0.000000
 -0.080000  0.000000  0.000000
 -0.070000  0.000000  0.000000
 -0.060000  0.000000  0.000000
 -0.050000  0.000000  0.000000
 -0.040000  0.000000  0.000000
 -0.030000  0.000000  0.000000
 -0.020000  0.000000  0.000000
 -0.010000  0.000000  0.000000
 -0.000000  0.000000  0.000000
  0.010000  0.000000  0.000000
  0.020000  0.000000  0.000000
  0.030000  0.000000  0.000000
  0.040000  0.000000  0.000000
  0.050000  0.000000  0.000000
  0.060000  0.000000  0.000000
  0.070000  0.000000  0.000000
  0.080000  0.000000  0.000000
  0.090000  0.000000  0.000000
  0.100000  0.000000  0.000000
  0.110000  0.000000  0.000000
  0.120000  0.000000  0.000000
  0.130000  0.000000  0.000000
  0.140000  0.000000  0.000000
  0.150000  0.000000  0.000000
  0.160000  0.000000  0.000000
  0.170000  0.000000  0.000000
  0.180000  0.000000  0.000000
  0.190000  0.000000  0.000000
  0.200000  0.000000  0.000000
  0.210000  0.000000  0.000000
  0.220000  0.000000  0.000000
  0.230000  0.000000  0.000000
  0.240000  0.000000  0.000000
  0.250000  0.000000  0.000000
  0.260000  0.000000  0.000000
  0.270000  0.000000  0.000000
  0.280000  0.000000  0.000000
  0.290000  0.000000  0.000000
  0.300000  0.000000  0.000000
  0.310000  0.000000  0.000000
  0.320000  0.000000  0.000000
  0.330000  0.000000  0.000000
  0.340000  0.000000  0.000000
  0.350000  0.000000  0.000000
  0.360000  0.000000  0.000000
  0.370000  0.000000  0.000000
  0.380000  0.000000  0.000000
  0.390000  0.000000  0.000000
  0.400000  0.000000  0.000000
  0.410000  0.000000  0.000000
  0.420000  0.000000  0.000000
  0.430000  0.000000  0.000000
  0.440000  0.000000  0.000000
  0.450000  0.000000  0.000000
  0.460000  0.000000  0.000000
  0.470000  0.000000  0.000000
  0.480000  0.000000  0.000000
  0.490000  0.000000  0.000000
  0.500000  0.000000  0.000000
  0.510000  0.000000  0.000000
  0.520000  0.000000  0.000000
  0.530000  0.000000  0.000000
  0.540000  0.000000  0.000000
  0.550000  0.000000  0.000000
  0.560000  0.000000  0.000000
  0.570000  0.000000  0.000000
  0.580000  0.000000  0.000000
  0.590000  0.000000  0.000000
  0.600000  0.000000  0.000000
  0.610000  0.000000  0.000000
  0.620000  0.000000  0.000000
  0.630000  0.000000  0.000000
  0.640000  0.000000  0.000000
  0.650000  0.000000  0.000000
  0.660000  0.000000  0.000000
  0.670000  0.000000  0.000000
  0.680000  0.000000  0.000000
  0.690000  0.000000  0.000000
  0.700000  0.000000  0.000000
  0.710000  0.000000  0.000000
  0.720000  0.000000  0.000000
  0.730000  0.000000  0.000000
  0.740000  0.000000  0.000000
  0.750000  0.000000  0.000000
  0.760000  0.000000  0.000000
  0.770000  0.000000  0.000000
  0.780000  0.000000  0.000000
  0.790000  0.000000  0.000000
  0.800000  0.000000  0.000000
  0.700000  0.010000  0.000000
  0.700000  0.020000  0.000000
  0.700000  0.030000  0.000000
  0.700000  0.040000  0.000000
  0.700000  0.050000  0.000000
  0.700000  0.060000  0.000000
  0.700000  0.070000  0.000000
  0.700000  0.080000  0.000000
  0.700000  0.090000  0.000000
  0.700000  0.100000  0.000000
  0.700000  0.110000  0.000000
  0.700000  0.120000  0.000000
  0.700000  0.130000  0.000000
  0.700000  0.140000  0.000000
  0.700000  0.150000  0.000000
  0.700000  0.160000  0.000000
  0.700000  0.170000  0.000000
  0.700000  0.180000  0.000000
  0.700000  0.190000  0.000000
  0.700000  0.200000  0.000000
  0.700000  0.210000  0.000000
  0.700000  0.220000  0.000000
  0.700000  0.230000  0.000000
  0.700000  0.240000  0.000000
  0.700000  0.250000  0.000000
  0.700000  0.260000  0.000000
  0.700000  0.270000  0.000000
  0.700000  0.280000  0.000000
  0.700000  0.290000  0.000000
  0.700000  0.300000  0.000000
  0.700000  0.310000  0.000000
  0.700000  0.320000  0.000000
  0.700000  0.330000  0.000000
  0.700000  0.340000  0.000000
  0.700000  0.350000  0.000000
  0.700000  0.360000  0.000000
  0.700000  0.370000  0.000000
  0.700000  0.380000  0.000000
  0.700000  0.390000  0.000000
  0.700000  0.400000  0.000000
  0.700000  0.410000  0.000000
  0.700000  0.420000  0.000000
  0.700000  0.430000  0.000000
  0.700000  0.440000  0.000000
  0.700000  0.450000  0.000000
  0.700000  0.460000  0.000000
  0.700000  0.470000  0.000000
  0.700000  0.480000  0.000000
  0.700000  0.490000  0.000000
  0.700000  0.500000  0.000000
  0.018861  0.010950  0.000000
  0.020739  0.019152  0.000000
  0.035194  0.015004  0.000000
  0.009244  0.010282  0.000000
  0.030990  0.022666  0.000000
  0.010928  0.021027  0.000000
  0.035312  0.029744  0.000000
  0.043447  0.019378  0.000000
  0.059356  0.027107  0.000000
  0.040956  0.035713  0.000000
  0.048250  0.038469  0.000000
  0.009410  0.029912  0.000000
  0.009517  0.042149  0.000000
  0.011739  0.048984  0.000000
  0.009603  0.059350  0.000000
  0.022016  0.055448  0.000000
  0.037177  0.061392  0.000000
  0.013344  0.065379  0.000000
  0.026581  0.080943  0.000000
  0.008917  0.076088  0.000000
  0.016194  0.077116  0.000000
  0.009843  0.088027  0.000000
  0.009704  0.097625  0.000000
  0.015788  0.107687  0.000000
  0.009301  0.110066  0.000000
  0.022090  0.115566  0.000000
  0.009555  0.122942  0.000000
  0.020369  0.126685  0.000000
  0.014784  0.126761  0.000000
  0.028705  0.124850  0.000000
  0.045180  0.008908  0.000000
  0.029022  0.008467  0.000000
  0.054361  0.010495  0.000000
  0.051501  0.020713  0.000000
  0.067783  0.008788  0.000000
  0.070742  0.021199  0.000000
  0.087758  0.016431  0.000000
  0.063868  0.014595  0.000000
  0.058915  0.042538  0.000000
  0.052602  0.030348  0.000000
  0.042383  0.049202  0.000000
  0.022457  0.030748  0.000000
  0.059817  0.046443  0.000000
  0.030364  0.039669  0.000000
  0.054143  0.060779  0.000000
  0.022123  0.048368  0.000000
  0.018206  0.034204  0.000000
  0.034657  0.058734  0.000000
  0.047907  0.063073  0.000000
  0.023277  0.066136  0.000000
  0.049153  0.077749  0.000000
  0.036590  0.076408  0.000000
  0.021646  0.087679  0.000000
  0.036796  0.089030  0.000000
  0.020521  0.094557  0.000000
  0.035203  0.103212  0.000000
  0.023313  0.101847  0.000000
  0.033669  0.107031  0.000000
  0.031592  0.115635  0.000000
  0.040844  0.122014  0.000000
  0.102641  0.010538  0.000000
  0.081188  0.009148  0.000000
  0.092235  0.010003  0.000000
  0.077955  0.019593  0.000000
  0.100734  0.023442  0.000000
  0.120691  0.013848  0.000000
  0.133975  0.022438  0.000000
  0.104080  0.038103  0.000000
  0.086860  0.046695  0.000000
  0.067925  0.031169  0.000000
  0.087374  0.035033  0.000000
  0.091213  0.026007  0.000000
  0.067856  0.052170  0.000000
  0.071933  0.068785  0.000000
  0.083337  0.061072  0.000000
  0.031369  0.046248  0.000000
  0.061497  0.063327  0.000000
  0.048249  0.050861  0.000000
  0.044150  0.074790  0.000000
  0.028077  0.071390  0.000000
  0.059732  0.073056  0.000000
  0.058915  0.083626  0.000000
  0.049543  0.088932  0.000000
  0.038832  0.090406  0.000000
  0.056182  0.097983  0.000000
  0.045792  0.100391  0.000000
  0.050239  0.107058  0.000000
  0.055151  0.113243  0.000000
  0.050103  0.118846  0.000000
  0.043073  0.126240  0.000000
  0.138517  0.010300  0.000000
  0.110789  0.009632  0.000000
  0.138482  0.016370  0.000000
  0.107536  0.020008  0.000000
  0.131738  0.038041  0.000000
  0.126632  0.008854  0.000000
  0.132513  0.032921  0.000000
  0.123936  0.021657  0.000000
  0.115289  0.042293  0.000000
  0.081587  0.030192  0.000000
  0.121908  0.042476  0.000000
  0.076632  0.042114  0.000000
  0.106929  0.046899  0.000000
  0.071802  0.037108  0.000000
  0.069455  0.057141  0.000000
  0.100120  0.032546  0.000000
  0.081660  0.052252  0.000000
  0.093492  0.057626  0.000000
  0.080859  0.067047  0.000000
  0.076791  0.078796  0.000000
  0.095581  0.076522  0.000000
  0.065629  0.078759  0.000000
  0.061728  0.093296  0.000000
  0.081403  0.082925  0.000000
  0.072456  0.093436  0.000000
  0.066111  0.103693  0.000000
  0.074561  0.107969  0.000000
  0.068299  0.111454  0.000000
  0.064778  0.123866  0.000000
  0.071430  0.121299  0.000000
  0.167659  0.009136  0.000000
  0.152015  0.008464  0.000000
  0.166518  0.014974  0.000000
  0.152704  0.014810  0.000000
  0.186481  0.012639  0.000000
  0.150151  0.023332  0.000000
  0.141876  0.031444  0.000000
  0.157100  0.024764  0.000000
  0.115099  0.026334  0.000000
  0.156308  0.035830  0.000000
  0.117858  0.031154  0.000000
  0.148284  0.036297  0.000000
  0.136915  0.047752  0.000000
  0.125047  0.053391  0.000000
  0.134379  0.066687  0.000000
  0.095233  0.045128  0.000000
  0.119449  0.054469  0.000000
  0.102214  0.053263  0.000000
  0.112976  0.076950  0.000000
  0.100106  0.063328  0.000000
  0.088423  0.074366  0.000000
  0.100193  0.072506  0.000000
  0.094547  0.089016  0.000000
  0.076091  0.090996  0.000000
  0.094362  0.092139  0.000000
  0.085188  0.101886  0.000000
  0.086763  0.099642  0.000000
  0.088694  0.113729  0.000000
  0.084712  0.114583  0.000000
  0.081124  0.124461  0.000000
  0.196216  0.009087  0.000000
  0.180202  0.009684  0.000000
  0.213820  0.021661  0.000000
  0.190954  0.021638  0.000000
  0.235379  0.012811  0.000000
  0.198496  0.029696  0.000000
  0.215535  0.012147  0.000000
  0.173394  0.020376  0.000000
  0.183500  0.024760  0.000000
  0.204914  0.031508  0.000000
  0.179542  0.033569  0.000000
  0.188164  0.035001  0.000000
  0.169630  0.027630  0.000000
  0.148661  0.047983  0.000000
  0.137409  0.051926  0.000000
  0.143425  0.059337  0.000000
  0.115990  0.062540  0.000000
  0.155005  0.059827  0.000000
  0.109787  0.064591  0.000000
  0.130297  0.065940  0.000000
  0.121262  0.071487  0.000000
  0.124579  0.080110  0.000000
  0.106515  0.084074  0.000000
  0.116092  0.084749  0.000000
  0.113336  0.097858  0.000000
  0.104881  0.093756  0.000000
  0.105678  0.104434  0.000000
  0.104182  0.108322  0.000000
  0.097747  0.114932  0.000000
  0.101808  0.120152  0.000000
  0.250078  0.012624  0.000000
  0.206191  0.013085  0.000000
  0.223666  0.011008  0.000000
  0.201356  0.018182  0.000000
  0.275312  0.025557  0.000000
  0.239197  0.011443  0.000000
  0.253619  0.016906  0.000000
  0.226528  0.019438  0.000000
  0.220988  0.026636  0.000000
  0.222449  0.034427  0.000000
  0.208457  0.035191  0.000000
  0.216111  0.045191  0.000000
  0.190338  0.041866  0.000000
  0.165073  0.033977  0.000000
  0.170872  0.042979  0.000000
  0.154444  0.047362  0.000000
  0.161286  0.055927  0.000000
  0.172539  0.057595  0.000000
  0.152049  0.066736  0.000000
  0.142092  0.072373  0.000000
  0.157559  0.074966  0.000000
  0.139234  0.079584  0.000000
  0.131932  0.084462  0.000000
  0.137579  0.091712  0.000000
  0.123555  0.093785  0.000000
  0.132601  0.097779  0.000000
  0.125046  0.105932  0.000000
  0.120843  0.104062  0.000000
  0.118626  0.117351  0.000000
  0.112475  0.120063  0.000000
  0.268138  0.015965  0.000000
  0.260220  0.009968  0.000000
  0.312924  0.024592  0.000000
  0.274134  0.010835  0.000000
  0.321616  0.025885  0.000000
  0.290203  0.011237  0.000000
  0.293080  0.028953  0.000000
  0.268230  0.025948  0.000000
  0.282258  0.013006  0.000000
  0.258451  0.026882  0.000000
  0.243325  0.024565  0.000000
  0.236224  0.027641  0.000000
  0.236153  0.033247  0.000000
  0.199694  0.046155  0.000000
  0.209197  0.055847  0.000000
  0.181288  0.047987  0.000000
  0.170812  0.045852  0.000000
  0.194316  0.051089  0.000000
  0.179328  0.059557  0.000000
  0.189154  0.057139  0.000000
  0.167712  0.071866  0.000000
  0.167490  0.065467  0.000000
  0.168213  0.080857  0.000000
  0.149193  0.081437  0.000000
  0.157409  0.084540  0.000000
  0.151381  0.092267  0.000000
  0.148834  0.096594  0.000000
  0.141714  0.104801  0.000000
  0.139727  0.117206  0.000000
  0.139016  0.110645  0.000000
  0.322843  0.013097  0.000000
  0.308652  0.012362  0.000000
  0.333882  0.012442  0.000000
  0.313035  0.011428  0.000000
  0.346190  0.015008  0.000000
  0.327241  0.017833  0.000000
  0.336930  0.029242  0.000000
  0.298692  0.019882  0.000000
  0.296861  0.014114  0.000000
  0.297100  0.031970  0.000000
  0.265811  0.037852  0.000000
  0.267804  0.041206  0.000000
  0.253316  0.050135  0.000000
  0.250364  0.031172  0.000000
  0.243478  0.042957  0.000000
  0.209767  0.047514  0.000000
  0.225992  0.039595  0.000000
  0.224415  0.052246  0.000000
  0.223336  0.060056  0.000000
  0.207696  0.062917  0.000000
  0.198384  0.065880  0.000000
  0.187170  0.066188  0.000000
  0.186624  0.074224  0.000000
  0.180958  0.076082  0.000000
  0.183009  0.083949  0.000000
  0.170150  0.087589  0.000000
  0.168406  0.094934  0.000000
  0.160701  0.101953  0.000000
  0.157936  0.106990  0.000000
  0.151923  0.110278  0.000000
  0.394642  0.010801  0.000000
  0.343862  0.010278  0.000000
  0.402668  0.013218  0.000000
  0.367391  0.015530  0.000000
  0.411701  0.027708  0.000000
  0.374186  0.012053  0.000000
  0.404596  0.023653  0.000000
  0.351845  0.031740  0.000000
  0.326522  0.035803  0.000000
  0.308404  0.030035  0.000000
  0.311422  0.036801  0.000000
  0.301418  0.044850  0.000000
  0.255658  0.036572  0.000000
  0.282357  0.023421  0.000000
  0.285325  0.035550  0.000000
  0.278991  0.040714  0.000000
  0.251046  0.056744  0.000000
  0.242451  0.045615  0.000000
  0.242573  0.062256  0.000000
  0.232003  0.049377  0.000000
  0.235814  0.058116  0.000000
  0.215582  0.066444  0.000000
  0.225795  0.070018  0.000000
  0.202265  0.074242  0.000000
  0.205868  0.084397  0.000000
  0.195745  0.084578  0.000000
  0.191352  0.091347  0.000000
  0.184999  0.094651  0.000000
  0.174499  0.098836  0.000000
  0.175060  0.106980  0.000000
  0.432960  0.012296  0.000000
  0.397668  0.023692  0.000000
  0.466349  0.012977  0.000000
  0.419324  0.012535  0.000000
  0.456079  0.012120  0.000000
  0.410522  0.010724  0.000000
  0.432946  0.011883  0.000000
  0.419306  0.017706  0.000000
  0.385922  0.030629  0.000000
  0.365137  0.026581  0.000000
  0.383739  0.013681  0.000000
  0.338901  0.022670  0.000000
  0.339721  0.034816  0.000000
  0.342448  0.050706  0.000000
  0.332542  0.044527  0.000000
  0.300809  0.047438  0.000000
  0.287022  0.043522  0.000000
  0.279238  0.051299  0.000000
  0.278821  0.057797  0.000000
  0.266305  0.053833  0.000000
  0.262593  0.066481  0.000000
  0.250870  0.067563  0.000000
  0.234714  0.068866  0.000000
  0.236556  0.081588  0.000000
  0.209123  0.077465  0.000000
  0.222717  0.076904  0.000000
  0.211675  0.093102  0.000000
  0.197301  0.101054  0.000000
  0.199225  0.107830  0.000000
  0.187454  0.104158  0.000000
  0.524212  0.009875  0.000000
  0.486756  0.013828  0.000000
  0.525831  0.016338  0.000000
  0.502266  0.013769  0.000000
  0.512217  0.013916  0.000000
  0.481792  0.012518  0.000000
  0.471984  0.011044  0.000000
  0.443363  0.018898  0.000000
  0.448322  0.011654  0.000000
  0.429763  0.028234  0.000000
  0.420849  0.035848  0.000000
  0.385316  0.015881  0.000000
  0.377382  0.028242  0.000000
  0.366380  0.036420  0.000000
  0.355438  0.027500  0.000000
  0.346135  0.042842  0.000000
  0.332997  0.052309  0.000000
  0.321577  0.038860  0.000000
  0.326531  0.056419  0.000000
  0.311367  0.049678  0.000000
  0.291722  0.054280  0.000000
  0.300303  0.060831  0.000000
  0.262662  0.053229  0.000000
  0.272205  0.066724  0.000000
  0.255021  0.072092  0.000000
  0.240943  0.077183  0.000000
  0.229944  0.092043  0.000000
  0.228814  0.084355  0.000000
  0.215075  0.090880  0.000000
  0.206476  0.098659  0.000000
  0.624315  0.013006  0.000000
  0.582056  0.020680  0.000000
  0.582601  0.011211  0.000000
  0.559825  0.012783  0.000000
  0.572772  0.011901  0.000000
  0.539612  0.010830  0.000000
  0.510295  0.025518  0.000000
  0.517550  0.021110  0.000000
  0.499931  0.009613  0.000000
  0.474041  0.023906  0.000000
  0.456413  0.019752  0.000000
  0.440231  0.026988  0.000000
  0.424557  0.026923  0.000000
  0.436348  0.043696  0.000000
  0.389857  0.037961  0.000000
  0.393311  0.044668  0.000000
  0.377171  0.031989  0.000000
  0.360598  0.010744  0.000000
  0.356831  0.016703  0.000000
  0.380673  0.046544  0.000000
  0.355388  0.043429  0.000000
  0.337198  0.065235  0.000000
  0.317507  0.048998  0.000000
  0.288954  0.062039  0.000000
  0.282759  0.068856  0.000000
  0.269525  0.073988  0.000000
  0.256027  0.082274  0.000000
  0.250188  0.084761  0.000000
  0.242108  0.100199  0.000000
  0.228111  0.098042  0.000000
  0.653359  0.016771  0.000000
  0.622763  0.018123  0.000000
  0.633490  0.011244  0.000000
  0.612106  0.012082  0.000000
  0.630288  0.043083  0.000000
  0.592158  0.011615  0.000000
  0.563351  0.025313  0.000000
  0.573093  0.031794  0.000000
  0.529237  0.023620  0.000000
  0.563968  0.029477  0.000000
  0.543789  0.024744  0.000000
  0.503004  0.026156  0.000000
  0.483068  0.024855  0.000000
  0.497686  0.042419  0.000000
  0.465988  0.025743  0.000000
  0.449062  0.029514  0.000000
  0.454543  0.049781  0.000000
  0.415510  0.042948  0.000000
  0.419056  0.045931  0.000000
  0.401151  0.034935  0.000000
  0.378377  0.049746  0.000000
  0.360848  0.040297  0.000000
  0.360809  0.055978  0.000000
  0.327136  0.068665  0.000000
  0.318826  0.063811  0.000000
  0.303292  0.071860  0.000000
  0.284095  0.076229  0.000000
  0.275489  0.084519  0.000000
  0.258845  0.092556  0.000000
  0.251106  0.092306  0.000000
  0.672505  0.012883  0.000000
  0.676035  0.036151  0.000000
  0.673367  0.029181  0.000000
  0.665701  0.021322  0.000000
  0.651703  0.037306  0.000000
  0.641642  0.010840  0.000000
  0.606064  0.009978  0.000000
  0.619312  0.039236  0.000000
  0.580955  0.031010  0.000000
  0.593423  0.017284  0.000000
  0.588011  0.033972  0.000000
  0.550784  0.010855  0.000000
  0.567183  0.013001  0.000000
  0.553877  0.022403  0.000000
  0.493215  0.022118  0.000000
  0.514775  0.038765  0.000000
  0.497899  0.032040  0.000000
  0.466206  0.032317  0.000000
  0.465983  0.045111  0.000000
  0.446043  0.035045  0.000000
  0.432694  0.041203  0.000000
  0.403496  0.040440  0.000000
  0.390192  0.061143  0.000000
  0.373529  0.053391  0.000000
  0.346748  0.058225  0.000000
  0.345709  0.065921  0.000000
  0.311482  0.061445  0.000000
  0.298559  0.069385  0.000000
  0.286892  0.087790  0.000000
  0.270511  0.082869  0.000000
  0.681487  0.024984  0.000000
  0.681097  0.011058  0.000000
  0.684807  0.047954  0.000000
  0.682702  0.092424  0.000000
  0.666057  0.012954  0.000000
  0.655063  0.009811  0.000000
  0.667886  0.041226  0.000000
  0.656274  0.049105  0.000000
  0.636926  0.019168  0.000000
  0.647570  0.022751  0.000000
  0.644344  0.035367  0.000000
  0.623889  0.030325  0.000000
  0.607447  0.029105  0.000000
  0.630429  0.031779  0.000000
  0.592753  0.038447  0.000000
  0.562638  0.042626  0.000000
  0.547793  0.041513  0.000000
  0.543488  0.017508  0.000000
  0.523671  0.032856  0.000000
  0.498781  0.049894  0.000000
  0.487775  0.032418  0.000000
  0.459120  0.036768  0.000000
  0.431978  0.052506  0.000000
  0.429306  0.065085  0.000000
  0.404824  0.050529  0.000000
  0.376944  0.061823  0.000000
  0.358016  0.056647  0.000000
  0.335332  0.080384  0.000000
  0.320907  0.075726  0.000000
  0.290242  0.081700  0.000000
  0.683901  0.078362  0.000000
  0.675612  0.128799  0.000000
  0.689241  0.034342  0.000000
  0.689856  0.053204  0.000000
  0.644024  0.158434  0.000000
  0.673505  0.048538  0.000000
  0.683058  0.070405  0.000000
  0.673968  0.083340  0.000000
  0.681444  0.123631  0.000000
  0.676747  0.065198  0.000000
  0.657893  0.028208  0.000000
  0.661315  0.034164  0.000000
  0.653432  0.052557  0.000000
  0.641807  0.049802  0.000000
  0.640396  0.029498  0.000000
  0.639857  0.046359  0.000000
  0.602765  0.035848  0.000000
  0.594185  0.025107  0.000000
  0.572122  0.040338  0.000000
  0.549083  0.033524  0.000000
  0.518269  0.045833  0.000000
  0.510124  0.042071  0.000000
  0.482096  0.038108  0.000000
  0.477955  0.059225  0.000000
  0.430550  0.056475  0.000000
  0.414961  0.057969  0.000000
  0.397981  0.058249  0.000000
  0.371872  0.067121  0.000000
  0.341216  0.072481  0.000000
  0.317266  0.076179  0.000000
  0.686096  0.060322  0.000000
  0.648680  0.214036  0.000000
  0.685421  0.112366  0.000000
  0.686401  0.038423  0.000000
  0.688500  0.097322  0.000000
  0.689241  0.020420  0.000000
  0.688284  0.013961  0.000000
  0.687370  0.092220  0.000000
  0.666834  0.104879  0.000000
  0.677098  0.136248  0.000000
  0.676840  0.111434  0.000000
  0.675836  0.058638  0.000000
  0.670882  0.088737  0.000000
  0.672060  0.105775  0.000000
  0.664428  0.051022  0.000000
  0.657380  0.066757  0.000000
  0.649455  0.063528  0.000000
  0.636275  0.062227  0.000000
  0.615324  0.026351  0.000000
  0.607059  0.042767  0.000000
  0.586317  0.050638  0.000000
  0.577643  0.057710  0.000000
  0.532699  0.047845  0.000000
  0.532626  0.033272  0.000000
  0.490106  0.050552  0.000000
  0.475054  0.040555  0.000000
  0.444617  0.057905  0.000000
  0.413456  0.057575  0.000000
  0.368469  0.066461  0.000000
  0.359563  0.068301  0.000000
  0.641343  0.204337  0.000000
  0.682942  0.169507  0.000000
  0.691048  0.076546  0.000000
  0.619778  0.296969  0.000000
  0.677084  0.265712  0.000000
  0.632632  0.229480  0.000000
  0.672353  0.261542  0.000000
  0.678819  0.140375  0.000000
  0.677854  0.175582  0.000000
  0.673826  0.204632  0.000000
  0.667344  0.150646  0.000000
  0.685971  0.132889  0.000000
  0.689727  0.152687  0.000000
  0.656168  0.142281  0.000000
  0.664498  0.063640  0.000000
  0.688148  0.116244  0.000000
  0.666259  0.077125  0.000000
  0.662399  0.120492  0.000000
  0.650739  0.081071  0.000000
  0.646066  0.074282  0.000000
  0.618373  0.057421  0.000000
  0.607295  0.020134  0.000000
  0.623569  0.046851  0.000000
  0.543723  0.051160  0.000000
  0.543374  0.045697  0.000000
  0.526266  0.043412  0.000000
  0.483251  0.048351  0.000000
  0.448113  0.043961  0.000000
  0.404189  0.068199  0.000000
  0.397477  0.064426  0.000000
  0.578313  0.339071  0.000000
  0.657242  0.190223  0.000000
  0.561509  0.310510  0.000000
  0.548869  0.350971  0.000000
  0.618314  0.325841  0.000000
  0.653972  0.229402  0.000000
  0.677771  0.243355  0.000000
  0.681179  0.294568  0.000000
  0.675804  0.226816  0.000000
  0.664367  0.310669  0.000000
  0.655264  0.208141  0.000000
  0.665252  0.202139  0.000000
  0.682688  0.206250  0.000000
  0.683187  0.180561  0.000000
  0.661714  0.152185  0.000000
  0.684059  0.160838  0.000000
  0.659433  0.106034  0.000000
  0.655495  0.093347  0.000000
  0.664896  0.090841  0.000000
  0.658205  0.077535  0.000000
  0.640532  0.065929  0.000000
  0.629325  0.055389  0.000000
  0.609869  0.049865  0.000000
  0.582915  0.048185  0.000000
  0.560162  0.047518  0.000000
  0.510828  0.055227  0.000000
  0.467043  0.056718  0.000000
  0.465047  0.053420  0.000000
  0.422714  0.066699  0.000000
 -0.010000  0.500000  0.000000
 -0.010000  0.490000  0.000000
 -0.010000  0.480000  0.000000
 -0.010000  0.470000  0.000000
 -0.010000  0.460000  0.000000
 -0.010000  0.450000  0.000000
 -0.010000  0.440000  0.000000
 -0.010000  0.430000  0.000000
 -0.010000  0.420000  0.000000
 -0.010000  0.410000  0.000000
 -0.010000  0.400000  0.000000
 -0.010000  0.390000  0.000000
 -0.010000  0.380000  0.000000
 -0.010000  0.370000  0.000000
 -0.010000  0.360000  0.000000
 -0.010000  0.350000  0.000000
 -0.010000  0.340000  0.000000
 -0.010000  0.330000  0.000000
 -0.010000  0.320000  0.000000
 -0.010000  0.310000  0.000000
 -0.010000  0.300000  0.000000
 -0.010000  0.290000  0.000000
 -0.010000  0.280000  0.000000
 -0.010000  0.270000  0.000000
 -0.010000  0.260000  0.000000
 -0.010000  0.250000  0.000000
 -0.010000  0.240000  0.000000
 -0.010000  0.230000  0.000000
 -0.010000  0.220000  0.000000
 -0.010000  0.210000  0.000000
 -0.010000  0.200000  0.000000
 -0.010000  0.190000  0.000000
 -0.010000  0.180000  0.000000
 -0.010000  0.170000  0.000000
 -0.010000  0.160000  0.000000
 -0.010000  0.150000  0.000000
 -0.010000  0.140000  0.000000
 -0.010000  0.130000  0.000000
 -0.010000  0.120000  0.000000
 -0.010000  0.110000  0.000000
 -0.010000  0.100000  0.000000
 -0.010000  0.090000  0.000000
 -0.010000  0.080000  0.000000
 -0.010000  0.070000  0.000000
 -0.010000  0.060000  0.000000
 -0.010000  0.050000  0.000000
 -0.010000  0.040000  0.000000
 -0.010000  0.030000  0.000000
 -0.010000  0.020000  0.000000
 -0.010000  0.010000  0.000000
 -0.100000 -0.010000  0.000000
 -0.090000 -0.010000  0.000000
 -0.080000 -0.010000  0.000000
 -0.070000 -0.010000  0.000000
 -0.060000 -0.010000  0.000000
 -0.050000 -0.010000  0.000000
 -0.040000 -0.010000  0.000000
 -0.030000 -0.010000  0.000000
 -0.020000 -0.010000  0.000000