<?xml version="1.0" encoding="UTF-8"?>
<VTKFile type="UnstructuredGrid" version="1.0" byte_order="LittleEndian">
<UnstructuredGrid>
  <Piece NumberOfPoints="1554" NumberOfCells="1554">
      <PointData>
        <DataArray type="Int32" Name="Type" format="ascii">
 1 1 1 1 1 1 1 1 1 1
 1 1 1 1 1 1 1 1 1 1
 1 1 1 1 1 1 1 1 1 1
 1 1 1 1 1 1 1 1 1 1
 1 1 1 1 1 1 1 1 1 1
 1 1 1 1 1 1 1 1 1 1
 1 3 3 3 3 3 3 3 3 3
 3 3 3 3 3 3 3 3 3 3
 3 3 3 3 3 3 3 3 3 3
 3 3 3 3 3 3 3 3 3 3
 3 3 3 3 3 3 3 3 3 3
 3 3 3 3 3 3 3 3 3 3
 3 3 3 3 3 3 3 3 3 3
 1 1 1 1 1 1 1 1 1 1
 1 1 1 1 1 1 1 1 1 1
 1 1 1 1 1 1 1 1 1 1
 1 1 1 1 1 1 1 1 1 1
 1 1 1 1 1 1 1 1 1 1
 1 1 1 1 1 1 1 1 1 1
 1 2 2 2 2 2 2 2 2 2
 2 2 2 2 2 2 2 2 2 2
 2 2 2 2 2 2 2 2 2 2
 2 2 2 2 2 2 2 2 2 2
 2 2 2 2 2 2 2 2 2 2
 2 2 2 2 2 2 2 2 2 2
 2 2 2 2 2 2 2 2 2 2
 2 2 2 2 2 2 2 2 2 2
 2 2 2 2 2 2 2 2 2 2
 2 2 2 2 2 2 2 2 2 2
 2 2 2 2 2 2 2 2 2 2
 2 2 2 2 2 2 2 2 2 2
 2 2 2 2 2 2 2 2 2 2
 2 2 2 2 2 2 2 2 2 2
 2 2 2 2 2 2 2 2 2 2
 2 2 2 2 2 2 2 2 2 2
 2 2 2 2 2 2 2 2 2 2
 2 2 2 2 2 2 2 2 2 2
 2 2 2 2 2 2 2 2 2 2
 2 2 2 2 2 2 2 2 2 2
 2 2 2 2 2 2 2 2 2 2
 2 2 2 2 2 2 2 2 2 2
 2 2 2 2 2 2 2 2 2 2
 2 2 2 2 2 2 2 2 2 2
 2 2 2 2 2 2 2 2 2 2
 2 2 2 2 2 2 2 2 2 2
 2 2 2 2 2 2 2 2 2 2
 2 2 2 2 2 2 2 2 2 2
 2 2 2 2 2 2 2 2 2 2
 2 2 2 2 2 2 2 2 2 2
 2 2 2 2 2 2 2 2 2 2
 2 2 2 2 2 2 2 2 2 2
 2 2 2 2 2 2 2 2 2 2
 2 2 2 2 2 2 2 2 2 2
 2 2 2 2 2 2 2 2 2 2
 2 2 2 2 2 2 2 2 2 2
 2 2 2 2 2 2 2 2 2 2
 2 2 2 2 2 2 2 2 2 2
 2 2 2 2 2 2 2 2 2 2
 2 2 2 2 2 2 2 2 2 2
 2 2 2 2 2 2 2 2 2 2
 2 2 2 2 2 2 2 2 2 2
 2 2 2 2 2 2 2 2 2 2
 2 2 2 2 2 2 2 2 2 2
 2 2 2 2 2 2 2 2 2 2
 2 2 2 2 2 2 2 2 2 2
 2 2 2 2 2 2 2 2 2 2
 2 2 2 2 2 2 2 2 2 2
 2 2 2 2 2 2 2 2 2 2
 2 2 2 2 2 2 2 2 2 2
 2 2 2 2 2 2 2 2 2 2
 2 2 2 2 2 2 2 2 2 2
 2 2 2 2 2 2 2 2 2 2
 2 2 2 2 2 2 2 2 2 2
 2 2 2 2 2 2 2 2 2 2
 2 2 2 2 2 2 2 2 2 2
 2 2 2 2 2 2 2 2 2 2
 2 2 2 2 2 2 2 2 2 2
 2 2 2 2 2 2 2 2 2 2
 2 2 2 2 2 2 2 2 2 2
 0 0 0 0 0 0 0 0 0 0
 0 0 0 0 0 0 0 0 0 0
 0 0 0 0 0 0 0 0 0 0
 0 0 0 0 0 0 0 0 0 0
 0 0 0 0 0 0 0 0 0 0
 0 0 0 0 0 0 0 0 0 0
 0 0 0 0 0 0 0 0 0 0
 0 0 0 0 0 0 0 0 0 0
 0 0 0 0 0 0 0 0 0 0
 0 0 0 0 0 0 0 0 0 0
 0 0 0 0 0 0 0 0 0 0
 0 0 0 0 0 0 0 0 0 0
 0 0 0 0 0 0 0 0 0 0
 0 0 0 0 0 0 0 0 0 0
 0 0 0 0 0 0 0 0 0 0
 0 0 0 0 0 0 0 0 0 0
 0 0 0 0 0 0 0 0 0 0
 0 0 0 0 0 0 0 0 0 0
 0 0 0 0 0 0 0 0 0 0
 0 0 0 0 0 0 0 0 0 0
 0 0 0 0 0 0 0 0 0 0
 0 0 0 0 0 0 0 0 0 0
 0 0 0 0 0 0 0 0 0 0
 0 0 0 0 0 0 0 0 0 0
 0 0 0 0 0 0 0 0 0 0
 0 0 0 0 0 0 0 0 0 0
 0 0 0 0 0 0 0 0 0 0
 0 0 0 0 0 0 0 0 0 0
 0 0 0 0 0 0 0 0 0 0
 0 0 0 0 0 0 0 0 0 0
 0 0 0 0 0 0 0 0 0 0
 0 0 0 0 0 0 0 0 0 0
 0 0 0 0 0 0 0 0 0 0
 0 0 0 0 0 0 0 0 0 0
 0 0 0 0 0 0 0 0 0 0
 0 0 0 0 0 0 0 0 0 0
 0 0 0 0 0 0 0 0 0 0
 0 0 0 0 0 0 0 0 0 0
 0 0 0 0 0 0 0 0 0 0
 0 0 0 0 0 0 0 0 0 0
 0 0 0 0 0 0 0 0 0 0
 0 0 0 0 0 0 0 0 0 0
 0 0 0 0 0 0 0 0 0 0
 0 0 0 0 0 0 0 0 0 0
 0 0 0 0 0 0 0 0 0 0
 0 0 0 0 0 0 0 0 0 0
 0 0 0 0 0 0 0 0 0 0
 0 0 0 0 0 0 0 0 0 0
 0 0 0 0 0 0 0 0 0 0
 0 0 0 0 0 0 0 0 0 0
 0 0 0 0 0 0 0 0 0 0
 0 0 0 0 0 0 0 0 0 0
 0 0 0 0 0 0 0 0 0 0
 0 0 0 0 0 0 0 0 0 0
 0 0 0 0 0 0 0 0 0 0
 0 0 0 0 0 0 0 0 0 0
 0 0 0 0 0 0 0 0 0 0
 0 0 0 0 0 0 0 0 0 0
 0 0 0 0 0 0 0 0 0 0
 0 0 0 0 0 0 0 0 0 0
 0 0 0 0 0 0 0 0 0 0
 0 0 0 0 0 0 0 0 0 0
 0 0 0 0 0 0 0 0 0 0
 0 0 0 0 0 0 0 0 0 0
 0 0 0 0 0 0 0 0 0 0
 0 0 0 0 0 0 0 0 0 0
 0 0 0 0 0 0 0 0 0 0
 0 0 0 0 0 0 0 0 0 0
 0 0 0 0 0 0 0 0 0 0
 0 0 0 0 0 0 0 0 0 0
 0 0 0 0 0 0 0 0 0 0
 0 0 0 0 0 0 0 0 0 0
 0 0 0 0 0 0 0 0 0 0
 0 0 0 0 0 0 0 0 0 0
 0 0 0 0 0 0 0 0 0 0
 0 0 0 0 0 0 0 0 0 0
 0 0 0 0
        </DataArray>
      </PointData>
      <Points>
        <DataArray type="Float32" NumberOfComponents="3" format="ascii">
  0.000000  0.500000  0.000000
  0.000000  0.490000  0.000000
  0.000000  0.480000  0.000000
  0.000000  0.470000  0.000000
  0.000000  0.460000  0.000000
  0.000000  0.450000  0.000000
  0.000000  0.440000  0.000000
  0.000000  0.430000  0.000000
  0.000000  0.420000  0.000000
  0.000000  0.410000  0.000000
  0.000000  0.400000  0.000000
  0.000000  0.390000  0.000000
  0.000000  0.380000  0.000000
  0.000000  0.370000  0.000000
  0.000000  0.360000  0.000000
  0.000000  0.350000  0.000000
  0.000000  0.340000  0.000000
  0.000000  0.330000  0.000000
  0.000000  0.320000  0.000000
  0.000000  0.310000  0.000000
  0.000000  0.300000  0.000000
  0.000000  0.290000  0.000000
  0.000000  0.280000  0.000000
  0.000000  0.270000  0.000000
  0.000000  0.260000  0.000000
  0.000000  0.250000  0.000000
  0.000000  0.240000  0.000000
  0.000000  0.230000  0.000000
  0.000000  0.220000  0.000000
  0.000000  0.210000  0.000000
  0.000000  0.200000  0.000000
  0.000000  0.190000  0.000000
  0.000000  0.180000  0.000000
  0.000000  0.170000  0.000000
  0.000000  0.160000  0.000000
  0.000000  0.150000  0.000000
  0.000000  0.140000  0.000000
  0.000000  0.130000  0.000000
  0.000000  0.120000  0.000000
  0.000000  0.110000  0.000000
  0.000000  0.100000  0.000000
  0.000000  0.090000  0.000000
  0.000000  0.080000  0.000000
  0.000000  0.070000  0.000000
  0.000000  0.060000  0.000000
  0.000000  0.050000  0.000000
  0.000000  0.040000  0.000000
  0.000000  0.030000  0.000000
  0.000000  0.020000  0.000000
  0.000000  0.010000  0.000000
 -0.100000  0.000000  0.000000
 -0.090000  0.000000  0.000000
 -0.080000  0.000000  0.000000
 -0.070000  0.000000  0.000000
 -0.060000  0.000000  0.000000
 -0.050000  0.000000  0.000000
 -0.040000  0.000000  0.000000
 -0.030000  0.000000  0.000000
 -0.020000  0.000000  0.000000
 -0.010000  0.000000  0.000000
 -0.000000  0.000000  0.000000
  0.010000  0.000000  0.000000
  0.020000  0.000000  0.000000
  0.030000  0.000000  0.000000
  0.040000  0.000000  0.000000
  0.050000  0.000000  0.000000
  0.060000  0.000000  0.000000
  0.070000  0.000000  0.000000
  0.080000  0.000000  0.000000
  0.090000  0.000000  0.000000
  0.100000  0.000000  0.000000
  0.110000  0.000000  0.000000
  0.120000  0.000000  0.000000
  0.130000  0.000000  0.000000
  0.140000  0.000000  0.000000
  0.150000  0.000000  0.000000
  0.160000  0.000000  0.000000
  0.170000  0.000000  0.000000
  0.180000  0.000000  0.000000
  0.190000  0.000000  0.000000
  0.200000  0.000000  0.000000
  0.210000  0.000000  0.000000
  0.220000  0.000000  0.000000
  0.230000  0.000000  0.000000
  0.240000  0.000000  0.000000
  0.250000  0.000000  0.000000
  0.260000  0.000000  0.000000
  0.270000  0.000000  0.000000
  0.280000  0.000000  0.000000
  0.290000  0.000000  0.000000
  0.300000  0.000000  0.000000
  0.310000  0.000000  0.000000
  0.320000  0.000000  0.000000
  0.330000  0.000000  0.000000
  0.340000  0.000000  0.000000
  0.350000  0.000000  0.000000
  0.360000  0.000000  0.000000
  0.370000  0.000000  0.000000
  0.380000  0.000000  0.000000
  0.390000  0.000000  0.000000
  0.400000  0.000000  0.000000
  0.410000  0.000000  0.000000
  0.420000  0.000000  0.000000
  0.430000  0.000000  0.000000
  0.440000  0.000000  0.000000
  0.450000  0.000000  0.000000
  0.460000  0.000000  0.000000
  0.470000  0.000000  0.000000
  0.480000  0.000000  0.000000
  0.490000  0.000000  0.000000
  0.500000  0.000000  0.000000
  0.510000  0.000000  0.000000
  0.520000  0.000000  0.000000
  0.530000  0.000000  0.000000
  0.540000  0.000000  0.000000
  0.550000  0.000000  0.000000
  0.560000  0.000000  0.000000
  0.570000  0.000000  0.000000
  0.580000  0.000000  0.000000
  0.590000  0.000000  0.000000
  0.600000  0.000000  0.000000
  0.610000  0.000000  0.000000
  0.620000  0.000000  0.000000
  0.630000  0.000000  0.000000
  0.640000  0.000000  0.000000
  0.650000  0.000000  0.000000
  0.660000  0.000000  0.000000
  0.670000  0.000000  0.000000
  0.680000  0.000000  0.000000
  0.690000  0.000000  0.000000
  0.700000  0.000000  0.000000
  0.710000  0.000000  0.000000
  0.720000  0.000000  0.000000
  0.730000  0.000000  0.000000
  0.740000  0.000000  0.000000
  0.750000  0.000000  0.000000
  0.760000  0.000000  0.000000
  0.770000  0.000000  0.000000
  0.780000  0.000000  0.000000
  0.790000  0.000000  0.000000
  0.800000  0.000000  0.000000
  0.700000  0.010000  0.000000
  0.700000  0.020000  0.000000
  0.700000  0.030000  0.000000
  0.700000  0.040000  0.000000
  0.700000  0.050000  0.000000
  0.700000  0.060000  0.000000
  0.700000  0.070000  0.000000
  0.700000  0.080000  0.000000
  0.700000  0.090000  0.000000
  0.700000  0.100000  0.000000
  0.700000  0.110000  0.000000
  0.700000  0.120000  0.000000
  0.700000  0.130000  0.000000
  0.700000  0.140000  0.000000
  0.700000  0.150000  0.000000
  0.700000  0.160000  0.000000
  0.700000  0.170000  0.000000
  0.700000  0.180000  0.000000
  0.700000  0.190000  0.000000
  0.700000  0.200000  0.000000
  0.700000  0.210000  0.000000
  0.700000  0.220000  0.000000
  0.700000  0.230000  0.000000
  0.700000  0.240000  0.000000
  0.700000  0.250000  0.000000
  0.700000  0.260000  0.000000
  0.700000  0.270000  0.000000
  0.700000  0.280000  0.000000
  0.700000  0.290000  0.000000
  0.700000  0.300000  0.000000
  0.700000  0.310000  0.000000
  0.700000  0.320000  0.000000
  0.700000  0.330000  0.000000
  0.700000  0.340000  0.000000
  0.700000  0.350000  0.000000
  0.700000  0.360000  0.000000
  0.700000  0.370000  0.000000
  0.700000  0.380000  0.000000
  0.700000  0.390000  0.000000
  0.700000  0.400000  0.000000
  0.700000  0.410000  0.000000
  0.700000  0.420000  0.000000
  0.700000  0.430000  0.000000
  0.700000  0.440000  0.000000
  0.700000  0.450000  0.000000
  0.700000  0.460000  0.000000
  0.700000  0.470000  0.000000
  0.700000  0.480000  0.000000
  0.700000  0.490000  0.000000
  0.700000  0.500000  0.000000
  0.021039  0.010686  0.000000
  0.020777  0.020013  0.000000
  0.037080  0.013969  0.000000
  0.010431  0.009259  0.000000
  0.037881  0.023907  0.000000
  0.009915  0.018837  0.000000
  0.042726  0.029002  0.000000
  0.049654  0.014902  0.000000
  0.073606  0.026350  0.000000
  0.050160  0.032127  0.000000
  0.059506  0.034060  0.000000
  0.009465  0.029210  0.000000
  0.015911  0.040372  0.000000
  0.008702  0.042213  0.000000
  0.010579  0.055050  0.000000
  0.023942  0.050793  0.000000
  0.043201  0.057324  0.000000
  0.012307  0.058198  0.000000
  0.032079  0.071717  0.000000
  0.008134  0.071002  0.000000
  0.018155  0.068012  0.000000
  0.012708  0.080457  0.000000
  0.010425  0.087029  0.000000
  0.016269  0.098891  0.000000
  0.009214  0.097766  0.000000
  0.026899  0.101100  0.000000
  0.008344  0.111477  0.000000
  0.021196  0.112784  0.000000
  0.019623  0.108234  0.000000
  0.033557  0.114303  0.000000
  0.045807  0.008515  0.000000
  0.029984  0.009691  0.000000
  0.062543  0.008994  0.000000
  0.055994  0.019037  0.000000
  0.077450  0.011971  0.000000
  0.083109  0.018598  0.000000
  0.099636  0.011606  0.000000
  0.069047  0.011154  0.000000
  0.067790  0.037581  0.000000
  0.059226  0.023991  0.000000
  0.045458  0.045349  0.000000
  0.029094  0.024043  0.000000
  0.066572  0.044213  0.000000
  0.030693  0.034689  0.000000
  0.057674  0.051333  0.000000
  0.023799  0.040329  0.000000
  0.018342  0.029183  0.000000
  0.035414  0.049367  0.000000
  0.056673  0.058263  0.000000
  0.026365  0.055851  0.000000
  0.056062  0.069676  0.000000
  0.040974  0.061599  0.000000
  0.021663  0.074881  0.000000
  0.036888  0.078195  0.000000
  0.023926  0.087479  0.000000
  0.036184  0.095544  0.000000
  0.026286  0.087894  0.000000
  0.040017  0.089702  0.000000
  0.035671  0.104804  0.000000
  0.048109  0.104510  0.000000
  0.116809  0.012218  0.000000
  0.087873  0.008101  0.000000
  0.107026  0.009240  0.000000
  0.091797  0.018912  0.000000
  0.110977  0.020435  0.000000
  0.135556  0.013123  0.000000
  0.151307  0.018650  0.000000
  0.118575  0.033223  0.000000
  0.097844  0.042353  0.000000
  0.071810  0.025264  0.000000
  0.103385  0.029434  0.000000
  0.098741  0.022717  0.000000
  0.076785  0.047741  0.000000
  0.081003  0.068088  0.000000
  0.096449  0.058788  0.000000
  0.037362  0.040146  0.000000
  0.066411  0.054593  0.000000
  0.051462  0.042419  0.000000
  0.047585  0.067522  0.000000
  0.028351  0.064707  0.000000
  0.067496  0.065216  0.000000
  0.063988  0.077548  0.000000
  0.053563  0.077036  0.000000
  0.042472  0.080277  0.000000
  0.059792  0.088079  0.000000
  0.050648  0.089962  0.000000
  0.053995  0.096535  0.000000
  0.062620  0.106974  0.000000
  0.058485  0.106010  0.000000
  0.043964  0.110719  0.000000
  0.155931  0.008701  0.000000
  0.125704  0.008671  0.000000
  0.162964  0.013172  0.000000
  0.126186  0.018475  0.000000
  0.149924  0.038438  0.000000
  0.142728  0.008988  0.000000
  0.144692  0.031813  0.000000
  0.144862  0.020131  0.000000
  0.129292  0.039810  0.000000
  0.086724  0.030474  0.000000
  0.139897  0.037652  0.000000
  0.088365  0.036138  0.000000
  0.119922  0.042149  0.000000
  0.081005  0.038015  0.000000
  0.079233  0.055438  0.000000
  0.117079  0.025268  0.000000
  0.087718  0.049126  0.000000
  0.103364  0.045691  0.000000
  0.088549  0.056940  0.000000
  0.084683  0.071968  0.000000
  0.109414  0.064825  0.000000
  0.071980  0.067556  0.000000
  0.067840  0.083940  0.000000
  0.096042  0.073380  0.000000
  0.080940  0.081925  0.000000
  0.070128  0.095945  0.000000
  0.083589  0.097232  0.000000
  0.072590  0.096207  0.000000
  0.070475  0.111355  0.000000
  0.081448  0.109251  0.000000
  0.186738  0.009946  0.000000
  0.173275  0.008393  0.000000
  0.183757  0.014738  0.000000
  0.169853  0.017723  0.000000
  0.215836  0.012537  0.000000
  0.163799  0.027199  0.000000
  0.157042  0.026683  0.000000
  0.175984  0.025074  0.000000
  0.135166  0.024873  0.000000
  0.178159  0.035679  0.000000
  0.129100  0.029625  0.000000
  0.163250  0.035579  0.000000
  0.156296  0.044085  0.000000
  0.140673  0.050573  0.000000
  0.151002  0.063999  0.000000
  0.105310  0.035424  0.000000
  0.134478  0.048372  0.000000
  0.114778  0.046630  0.000000
  0.124675  0.068760  0.000000
  0.105427  0.054605  0.000000
  0.098731  0.068206  0.000000
  0.112906  0.061422  0.000000
  0.102811  0.079658  0.000000
  0.079629  0.083360  0.000000
  0.105964  0.084685  0.000000
  0.091088  0.091455  0.000000
  0.096858  0.087969  0.000000
  0.102413  0.104318  0.000000
  0.093658  0.100122  0.000000
  0.089815  0.109996  0.000000
  0.221188  0.011108  0.000000
  0.199910  0.009982  0.000000
  0.244096  0.021038  0.000000
  0.216448  0.023566  0.000000
  0.261958  0.010985  0.000000
  0.222792  0.032754  0.000000
  0.238874  0.014193  0.000000
  0.201369  0.014487  0.000000
  0.208652  0.020510  0.000000
  0.231851  0.026917  0.000000
  0.198171  0.029266  0.000000
  0.210087  0.032207  0.000000
  0.194033  0.022217  0.000000
  0.166655  0.044881  0.000000
  0.154853  0.052288  0.000000
  0.163451  0.054096  0.000000
  0.123116  0.053783  0.000000
  0.176404  0.053456  0.000000
  0.125974  0.058106  0.000000
  0.143274  0.056983  0.000000
  0.134656  0.064659  0.000000
  0.141048  0.068340  0.000000
  0.116180  0.074500  0.000000
  0.129843  0.076397  0.000000
  0.128118  0.088251  0.000000
  0.120049  0.079269  0.000000
  0.116413  0.091941  0.000000
  0.114789  0.093240  0.000000
  0.107434  0.097950  0.000000
  0.114508  0.109530  0.000000
  0.279493  0.010784  0.000000
  0.233576  0.010888  0.000000
  0.249443  0.010940  0.000000
  0.227522  0.019586  0.000000
  0.313468  0.024057  0.000000
  0.271103  0.013135  0.000000
  0.287099  0.014169  0.000000
  0.256745  0.015001  0.000000
  0.251144  0.025701  0.000000
  0.246915  0.033145  0.000000
  0.236187  0.033165  0.000000
  0.247366  0.043428  0.000000
  0.214209  0.038266  0.000000
  0.183248  0.024443  0.000000
  0.193810  0.034417  0.000000
  0.176600  0.038929  0.000000
  0.180902  0.050093  0.000000
  0.196514  0.051064  0.000000
  0.171246  0.060971  0.000000
  0.159142  0.064242  0.000000
  0.176307  0.067730  0.000000
  0.154654  0.074138  0.000000
  0.143178  0.076844  0.000000
  0.153839  0.082731  0.000000
  0.136561  0.085556  0.000000
  0.149900  0.087632  0.000000
  0.139114  0.101042  0.000000
  0.134983  0.091110  0.000000
  0.132766  0.107328  0.000000
  0.127075  0.104139  0.000000
  0.302294  0.017993  0.000000
  0.295595  0.010184  0.000000
  0.349171  0.028339  0.000000
  0.304789  0.012085  0.000000
  0.363338  0.023737  0.000000
  0.330089  0.012799  0.000000
  0.326326  0.026400  0.000000
  0.304868  0.027664  0.000000
  0.315961  0.012919  0.000000
  0.292523  0.025482  0.000000
  0.278204  0.020406  0.000000
  0.266323  0.023913  0.000000
  0.265610  0.028282  0.000000
  0.226718  0.041280  0.000000
  0.238191  0.052519  0.000000
  0.201699  0.040403  0.000000
  0.189425  0.042198  0.000000
  0.223636  0.050510  0.000000
  0.204245  0.050299  0.000000
  0.215674  0.047432  0.000000
  0.187401  0.064271  0.000000
  0.190132  0.056331  0.000000
  0.192183  0.069860  0.000000
  0.163744  0.073196  0.000000
  0.176853  0.073666  0.000000
  0.173080  0.081635  0.000000
  0.168052  0.085160  0.000000
  0.156811  0.093060  0.000000
  0.155836  0.102030  0.000000
  0.157307  0.100298  0.000000
  0.367283  0.009946  0.000000
  0.349542  0.012197  0.000000
  0.379025  0.013367  0.000000
  0.353901  0.014476  0.000000
  0.391548  0.023306  0.000000
  0.362778  0.016985  0.000000
  0.379205  0.032113  0.000000
  0.335355  0.018330  0.000000
  0.339663  0.010580  0.000000
  0.333993  0.031040  0.000000
  0.298721  0.036994  0.000000
  0.302871  0.037530  0.000000
  0.286133  0.045181  0.000000
  0.287490  0.026706  0.000000
  0.275793  0.033635  0.000000
  0.236023  0.042089  0.000000
  0.257215  0.034285  0.000000
  0.247996  0.050994  0.000000
  0.256221  0.057618  0.000000
  0.231123  0.058031  0.000000
  0.218269  0.060555  0.000000
  0.209921  0.057321  0.000000
  0.207960  0.068391  0.000000
  0.200287  0.064162  0.000000
  0.205156  0.074355  0.000000
  0.189681  0.079958  0.000000
  0.184837  0.085241  0.000000
  0.180280  0.092544  0.000000
  0.183422  0.096850  0.000000
  0.172167  0.096823  0.000000
  0.443955  0.011222  0.000000
  0.383884  0.014246  0.000000
  0.451439  0.012737  0.000000
  0.419754  0.017823  0.000000
  0.462123  0.028801  0.000000
  0.420135  0.009742  0.000000
  0.454019  0.022313  0.000000
  0.399802  0.029411  0.000000
  0.370758  0.033135  0.000000
  0.343971  0.024097  0.000000
  0.350449  0.035346  0.000000
  0.339349  0.040193  0.000000
  0.283573  0.035306  0.000000
  0.320819  0.011118  0.000000
  0.321124  0.027668  0.000000
  0.316145  0.036679  0.000000
  0.277873  0.049676  0.000000
  0.271199  0.040122  0.000000
  0.270002  0.054380  0.000000
  0.258098  0.043451  0.000000
  0.264737  0.046999  0.000000
  0.241670  0.062445  0.000000
  0.251209  0.063644  0.000000
  0.223777  0.065382  0.000000
  0.234534  0.080290  0.000000
  0.222839  0.078348  0.000000
  0.218978  0.077172  0.000000
  0.205745  0.083654  0.000000
  0.197393  0.082885  0.000000
  0.200290  0.095583  0.000000
  0.480699  0.016516  0.000000
  0.442371  0.027473  0.000000
  0.525504  0.010172  0.000000
  0.468779  0.010550  0.000000
  0.510767  0.010654  0.000000
  0.459274  0.014035  0.000000
  0.488110  0.010812  0.000000
  0.471026  0.015102  0.000000
  0.435488  0.025061  0.000000
  0.407735  0.015008  0.000000
  0.429441  0.013730  0.000000
  0.374379  0.022512  0.000000
  0.385784  0.030997  0.000000
  0.390417  0.047016  0.000000
  0.377703  0.048461  0.000000
  0.336122  0.040475  0.000000
  0.324005  0.044750  0.000000
  0.311756  0.043869  0.000000
  0.310272  0.052361  0.000000
  0.298034  0.052803  0.000000
  0.294122  0.066296  0.000000
  0.281650  0.061285  0.000000
  0.265230  0.062130  0.000000
  0.266120  0.079374  0.000000
  0.232864  0.068146  0.000000
  0.241160  0.073805  0.000000
  0.244580  0.090007  0.000000
  0.220169  0.091964  0.000000
  0.222583  0.089384  0.000000
  0.206787  0.091613  0.000000
  0.584238  0.015356  0.000000
  0.545873  0.009016  0.000000
  0.585519  0.017751  0.000000
  0.563500  0.011492  0.000000
  0.573602  0.011882  0.000000
  0.545629  0.014460  0.000000
  0.523595  0.013311  0.000000
  0.492539  0.013351  0.000000
  0.503894  0.012094  0.000000
  0.484487  0.029309  0.000000
  0.468854  0.028884  0.000000
  0.437209  0.012819  0.000000
  0.428316  0.026022  0.000000
  0.414857  0.031998  0.000000
  0.398330  0.017854  0.000000
  0.387654  0.041262  0.000000
  0.370595  0.047554  0.000000
  0.365355  0.035602  0.000000
  0.367114  0.052356  0.000000
  0.355601  0.049743  0.000000
  0.325039  0.048718  0.000000
  0.339978  0.055997  0.000000
  0.291414  0.047172  0.000000
  0.304094  0.055011  0.000000
  0.285654  0.060995  0.000000
  0.268416  0.068612  0.000000
  0.255397  0.091656  0.000000
  0.256515  0.071621  0.000000
  0.247279  0.076907  0.000000
  0.231527  0.087643  0.000000
  0.660488  0.010368  0.000000
  0.633676  0.030540  0.000000
  0.633556  0.018624  0.000000
  0.617905  0.010763  0.000000
  0.627093  0.022975  0.000000
  0.599154  0.015514  0.000000
  0.568108  0.027083  0.000000
  0.574907  0.020734  0.000000
  0.559243  0.011824  0.000000
  0.531298  0.023207  0.000000
  0.509117  0.020584  0.000000
  0.489317  0.023149  0.000000
  0.474746  0.026091  0.000000
  0.490945  0.041756  0.000000
  0.431608  0.037174  0.000000
  0.436284  0.049776  0.000000
  0.417363  0.025734  0.000000
  0.405450  0.011238  0.000000
  0.391499  0.009926  0.000000
  0.431476  0.044200  0.000000
  0.398151  0.036559  0.000000
  0.379612  0.062464  0.000000
  0.356872  0.038362  0.000000
  0.328912  0.054999  0.000000
  0.324231  0.063897  0.000000
  0.302805  0.068447  0.000000
  0.289312  0.074111  0.000000
  0.277225  0.070660  0.000000
  0.271124  0.082022  0.000000
  0.258000  0.084682  0.000000
  0.674895  0.029283  0.000000
  0.658829  0.027302  0.000000
  0.663101  0.015553  0.000000
  0.649331  0.014277  0.000000
  0.664482  0.080530  0.000000
  0.637078  0.011670  0.000000
  0.619072  0.028740  0.000000
  0.630142  0.035265  0.000000
  0.598755  0.034235  0.000000
  0.619276  0.036294  0.000000
  0.604216  0.024883  0.000000
  0.561819  0.030242  0.000000
  0.536997  0.023926  0.000000
  0.560560  0.046682  0.000000
  0.521773  0.022213  0.000000
  0.505865  0.024496  0.000000
  0.508274  0.050457  0.000000
  0.462706  0.041707  0.000000
  0.476096  0.040125  0.000000
  0.449431  0.030528  0.000000
  0.420440  0.039843  0.000000
  0.406531  0.034840  0.000000
  0.406619  0.053313  0.000000
  0.367941  0.069589  0.000000
  0.355693  0.057387  0.000000
  0.343687  0.068177  0.000000
  0.314810  0.061907  0.000000
  0.307772  0.080095  0.000000
  0.292481  0.079787  0.000000
  0.280303  0.082214  0.000000
  0.684853  0.028570  0.000000
  0.691728  0.079818  0.000000
  0.675580  0.053007  0.000000
  0.685616  0.044434  0.000000
  0.678764  0.075243  0.000000
  0.674725  0.015572  0.000000
  0.646124  0.013211  0.000000
  0.650741  0.059739  0.000000
  0.634522  0.045647  0.000000
  0.646188  0.027883  0.000000
  0.642706  0.046118  0.000000
  0.609478  0.013942  0.000000
  0.626045  0.010363  0.000000
  0.612283  0.022557  0.000000
  0.551217  0.020678  0.000000
  0.576425  0.038416  0.000000
  0.549892  0.033677  0.000000
  0.519471  0.032119  0.000000
  0.519082  0.041785  0.000000
  0.499200  0.030613  0.000000
  0.491126  0.036457  0.000000
  0.455468  0.037664  0.000000
  0.430344  0.064669  0.000000
  0.414138  0.045345  0.000000
  0.389397  0.053476  0.000000
  0.397140  0.061628  0.000000
  0.347558  0.049993  0.000000
  0.341691  0.061248  0.000000
  0.318986  0.070646  0.000000
  0.304553  0.074989  0.000000
  0.688535  0.041174  0.000000
  0.687821  0.013249  0.000000
  0.687139  0.090817  0.000000
  0.686922  0.160414  0.000000
  0.686568  0.013094  0.000000
  0.673470  0.010777  0.000000
  0.669866  0.091495  0.000000
  0.678815  0.093386  0.000000
  0.665566  0.026823  0.000000
  0.677096  0.035824  0.000000
  0.675512  0.066948  0.000000
  0.666578  0.037525  0.000000
  0.659212  0.045812  0.000000
  0.661063  0.068713  0.000000
  0.644200  0.068424  0.000000
  0.623229  0.050660  0.000000
  0.612426  0.043152  0.000000
  0.598977  0.008999  0.000000
  0.581692  0.031126  0.000000
  0.552127  0.045243  0.000000
  0.549707  0.029890  0.000000
  0.507132  0.035288  0.000000
  0.484491  0.052430  0.000000
  0.487801  0.064334  0.000000
  0.449250  0.045925  0.000000
  0.425981  0.061337  0.000000
  0.405883  0.048824  0.000000
  0.377459  0.070842  0.000000
  0.358321  0.067615  0.000000
  0.325617  0.072197  0.000000
  0.679789  0.152775  0.000000
  0.654427  0.204127  0.000000
  0.688804  0.062645  0.000000
  0.675886  0.119414  0.000000
  0.621968  0.242622  0.000000
  0.689283  0.104859  0.000000
  0.689372  0.124483  0.000000
  0.675796  0.143701  0.000000
  0.689858  0.195203  0.000000
  0.672183  0.123047  0.000000
  0.672817  0.050108  0.000000
  0.685811  0.064959  0.000000
  0.665024  0.091677  0.000000
  0.654527  0.091656  0.000000
  0.665341  0.055428  0.000000
  0.671676  0.076748  0.000000
  0.655341  0.052463  0.000000
  0.643853  0.039778  0.000000
  0.629176  0.059057  0.000000
  0.607281  0.035884  0.000000
  0.581846  0.050678  0.000000
  0.564266  0.038295  0.000000
  0.536309  0.031670  0.000000
  0.537640  0.048741  0.000000
  0.477179  0.048314  0.000000
  0.463528  0.060091  0.000000
  0.440968  0.043720  0.000000
  0.424989  0.061765  0.000000
  0.380465  0.063437  0.000000
  0.346812  0.072360  0.000000
  0.687240  0.117634  0.000000
  0.611707  0.306493  0.000000
  0.684236  0.179418  0.000000
  0.683391  0.084594  0.000000
  0.683296  0.180300  0.000000
  0.687271  0.053641  0.000000
  0.689719  0.026649  0.000000
  0.686366  0.154656  0.000000
  0.665648  0.179005  0.000000
  0.690239  0.209147  0.000000
  0.647888  0.174708  0.000000
  0.666845  0.110315  0.000000
  0.652346  0.157864  0.000000
  0.664010  0.159091  0.000000
  0.687185  0.105855  0.000000
  0.668245  0.127600  0.000000
  0.667292  0.108449  0.000000
  0.658558  0.103114  0.000000
  0.656391  0.039470  0.000000
  0.654152  0.087389  0.000000
  0.643784  0.076792  0.000000
  0.630773  0.060670  0.000000
  0.590458  0.046334  0.000000
  0.592372  0.025944  0.000000
  0.547627  0.049259  0.000000
  0.529846  0.037771  0.000000
  0.498636  0.050434  0.000000
  0.462564  0.047519  0.000000
  0.414718  0.057564  0.000000
  0.396818  0.062040  0.000000
  0.610683  0.301307  0.000000
  0.665251  0.268506  0.000000
  0.687543  0.144159  0.000000
  0.582871  0.416007  0.000000
  0.676761  0.350519  0.000000
  0.594147  0.315830  0.000000
  0.659442  0.364709  0.000000
  0.658479  0.208822  0.000000
  0.661947  0.276741  0.000000
  0.647408  0.318583  0.000000
  0.656110  0.251806  0.000000
  0.676487  0.228567  0.000000
  0.679731  0.245296  0.000000
  0.645650  0.194355  0.000000
  0.668074  0.138202  0.000000
  0.671415  0.191407  0.000000
  0.684593  0.135468  0.000000
  0.684522  0.188736  0.000000
  0.651433  0.126670  0.000000
  0.648225  0.129972  0.000000
  0.644135  0.090892  0.000000
  0.649017  0.028563  0.000000
  0.664086  0.066312  0.000000
  0.594348  0.050656  0.000000
  0.600297  0.044145  0.000000
  0.586019  0.036625  0.000000
  0.538472  0.044334  0.000000
  0.505882  0.043519  0.000000
  0.456799  0.059517  0.000000
  0.447974  0.062146  0.000000
  0.533803  0.447758  0.000000
  0.623011  0.284722  0.000000
  0.504209  0.418700  0.000000
  0.477931  0.485274  0.000000
  0.571842  0.464100  0.000000
  0.636112  0.325801  0.000000
  0.660110  0.355300  0.000000
  0.673409  0.406538  0.000000
  0.672073  0.315147  0.000000
  0.644597  0.443297  0.000000
  0.601212  0.299328  0.000000
  0.663513  0.282364  0.000000
  0.677470  0.297418  0.000000
  0.677411  0.263499  0.000000
  0.652330  0.208177  0.000000
  0.690957  0.235776  0.000000
  0.645977  0.182653  0.000000
  0.643971  0.164306  0.000000
  0.661906  0.164368  0.000000
  0.666625  0.141928  0.000000
  0.655019  0.133362  0.000000
  0.656087  0.107913  0.000000
  0.647714  0.071782  0.000000
  0.639521  0.055387  0.000000
  0.620413  0.052254  0.000000
  0.569947  0.047275  0.000000
  0.519035  0.054534  0.000000
  0.526997  0.050730  0.000000
  0.467056  0.056716  0.000000
 -0.010000  0.500000  0.000000
 -0.010000  0.490000  0.000000
 -0.010000  0.480000  0.000000
 -0.010000  0.470000  0.000000
 -0.010000  0.460000  0.000000
 -0.010000  0.450000  0.000000
 -0.010000  0.440000  0.000000
 -0.010000  0.430000  0.000000
 -0.010000  0.420000  0.000000
 -0.010000  0.410000  0.000000
 -0.010000  0.400000  0.000000
 -0.010000  0.390000  0.000000
 -0.010000  0.380000  0.000000
 -0.010000  0.370000  0.000000
 -0.010000  0.360000  0.000000
 -0.010000  0.350000  0.000000
 -0.010000  0.340000  0.000000
 -0.010000  0.330000  0.000000
 -0.010000  0.320000  0.000000
 -0.010000  0.310000  0.000000
 -0.010000  0.300000  0.000000
 -0.010000  0.290000  0.000000
 -0.010000  0.280000  0.000000
 -0.010000  0.270000  0.000000
 -0.010000  0.260000  0.000000
 -0.010000  0.250000  0.000000
 -0.010000  0.240000  0.000000
 -0.010000  0.230000  0.000000
 -0.010000  0.220000  0.000000
 -0.010000  0.210000  0.000000
 -0.010000  0.200000  0.000000
 -0.010000  0.190000  0.000000
 -0.010000  0.180000  0.000000
 -0.010000  0.170000  0.000000
 -0.010000  0.160000  0.000000
 -0.010000  0.150000  0.000000
 -0.010000  0.140000  0.000000
 -0.010000  0.130000  0.000000
 -0.010000  0.120000  0.000000
 -0.010000  0.110000  0.000000
 -0.010000  0.100000  0.000000
 -0.010000  0.090000  0.000000
 -0.010000  0.080000  0.000000
 -0.010000  0.070000  0.000000
 -0.010000  0.060000  0.000000
 -0.010000  0.050000  0.000000
 -0.010000  0.040000  0.000000
 -0.010000  0.030000  0.000000
 -0.010000  0.020000  0.000000
 -0.010000  0.010000  0.000000
 -0.100000 -0.010000  0.000000
 -0.090000 -0.010000  0.000000
 -0.080000 -0.010000  0.000000
 -0.070000 -0.010000  0.000000
 -0.060000 -0.010000  0.000000
 -0.050000 -0.010000  0.000000
 -0.040000 -0.010000  0.000000
 -0.030000 -0.010000  0.000000
 -0.020000 -0.010000  0.000000