<?xml version="1.0" encoding="UTF-8"?>
<VTKFile type="UnstructuredGrid" version="1.0" byte_order="LittleEndian">
<UnstructuredGrid>
  <Piece NumberOfPoints="1555" NumberOfCells="1555">
      <PointData>
        <DataArray type="Int32" Name="Type" format="ascii">
 1 1 1 1 1 1 1 1 1 1
 1 1 1 1 1 1 1 1 1 1
 1 1 1 1 1 1 1 1 1 1
 1 1 1 1 1 1 1 1 1 1
 1 1 1 1 1 1 1 1 1 1
 1 1 1 1 1 1 1 1 1 1
 1 3 3 3 3 3 3 3 3 3
 3 3 3 3 3 3 3 3 3 3
 3 3 3 3 3 3 3 3 3 3
 3 3 3 3 3 3 3 3 3 3
 3 3 3 3 3 3 3 3 3 3
 3 3 3 3 3 3 3 3 3 3
 3 3 3 3 3 3 3 3 3 3
 1 1 1 1 1 1 1 1 1 1
 1 1 1 1 1 1 1 1 1 1
 1 1 1 1 1 1 1 1 1 1
 1 1 1 1 1 1 1 1 1 1
 1 1 1 1 1 1 1 1 1 1
 1 1 1 1 1 1 1 1 1 1
 1 2 2 2 2 2 2 2 2 2
 2 2 2 2 2 2 2 2 2 2
 2 2 2 2 2 2 2 2 2 2
 2 2 2 2 2 2 2 2 2 2
 2 2 2 2 2 2 2 2 2 2
 2 2 2 2 2 2 2 2 2 2
 2 2 2 2 2 2 2 2 2 2
 2 2 2 2 2 2 2 2 2 2
 2 2 2 2 2 2 2 2 2 2
 2 2 2 2 2 2 2 2 2 2
 2 2 2 2 2 2 2 2 2 2
 2 2 2 2 2 2 2 2 2 2
 2 2 2 2 2 2 2 2 2 2
 2 2 2 2 2 2 2 2 2 2
 2 2 2 2 2 2 2 2 2 2
 2 2 2 2 2 2 2 2 2 2
 2 2 2 2 2 2 2 2 2 2
 2 2 2 2 2 2 2 2 2 2
 2 2 2 2 2 2 2 2 2 2
 2 2 2 2 2 2 2 2 2 2
 2 2 2 2 2 2 2 2 2 2
 2 2 2 2 2 2 2 2 2 2
 2 2 2 2 2 2 2 2 2 2
 2 2 2 2 2 2 2 2 2 2
 2 2 2 2 2 2 2 2 2 2
 2 2 2 2 2 2 2 2 2 2
 2 2 2 2 2 2 2 2 2 2
 2 2 2 2 2 2 2 2 2 2
 2 2 2 2 2 2 2 2 2 2
 2 2 2 2 2 2 2 2 2 2
 2 2 2 2 2 2 2 2 2 2
 2 2 2 2 2 2 2 2 2 2
 2 2 2 2 2 2 2 2 2 2
 2 2 2 2 2 2 2 2 2 2
 2 2 2 2 2 2 2 2 2 2
 2 2 2 2 2 2 2 2 2 2
 2 2 2 2 2 2 2 2 2 2
 2 2 2 2 2 2 2 2 2 2
 2 2 2 2 2 2 2 2 2 2
 2 2 2 2 2 2 2 2 2 2
 2 2 2 2 2 2 2 2 2 2
 2 2 2 2 2 2 2 2 2 2
 2 2 2 2 2 2 2 2 2 2
 2 2 2 2 2 2 2 2 2 2
 2 2 2 2 2 2 2 2 2 2
 2 2 2 2 2 2 2 2 2 2
 2 2 2 2 2 2 2 2 2 2
 2 2 2 2 2 2 2 2 2 2
 2 2 2 2 2 2 2 2 2 2
 2 2 2 2 2 2 2 2 2 2
 2 2 2 2 2 2 2 2 2 2
 2 2 2 2 2 2 2 2 2 2
 2 2 2 2 2 2 2 2 2 2
 2 2 2 2 2 2 2 2 2 2
 2 2 2 2 2 2 2 2 2 2
 2 2 2 2 2 2 2 2 2 2
 2 2 2 2 2 2 2 2 2 2
 2 2 2 2 2 2 2 2 2 2
 2 2 2 2 2 2 2 2 2 2
 2 2 2 2 2 2 2 2 2 2
 2 0 0 0 0 0 0 0 0 0
 0 0 0 0 0 0 0 0 0 0
 0 0 0 0 0 0 0 0 0 0
 0 0 0 0 0 0 0 0 0 0
 0 0 0 0 0 0 0 0 0 0
 0 0 0 0 0 0 0 0 0 0
 0 0 0 0 0 0 0 0 0 0
 0 0 0 0 0 0 0 0 0 0
 0 0 0 0 0 0 0 0 0 0
 0 0 0 0 0 0 0 0 0 0
 0 0 0 0 0 0 0 0 0 0
 0 0 0 0 0 0 0 0 0 0
 0 0 0 0 0 0 0 0 0 0
 0 0 0 0 0 0 0 0 0 0
 0 0 0 0 0 0 0 0 0 0
 0 0 0 0 0 0 0 0 0 0
 0 0 0 0 0 0 0 0 0 0
 0 0 0 0 0 0 0 0 0 0
 0 0 0 0 0 0 0 0 0 0
 0 0 0 0 0 0 0 0 0 0
 0 0 0 0 0 0 0 0 0 0
 0 0 0 0 0 0 0 0 0 0
 0 0 0 0 0 0 0 0 0 0
 0 0 0 0 0 0 0 0 0 0
 0 0 0 0 0 0 0 0 0 0
 0 0 0 0 0 0 0 0 0 0
 0 0 0 0 0 0 0 0 0 0
 0 0 0 0 0 0 0 0 0 0
 0 0 0 0 0 0 0 0 0 0
 0 0 0 0 0 0 0 0 0 0
 0 0 0 0 0 0 0 0 0 0
 0 0 0 0 0 0 0 0 0 0
 0 0 0 0 0 0 0 0 0 0
 0 0 0 0 0 0 0 0 0 0
 0 0 0 0 0 0 0 0 0 0
 0 0 0 0 0 0 0 0 0 0
 0 0 0 0 0 0 0 0 0 0
 0 0 0 0 0 0 0 0 0 0
 0 0 0 0 0 0 0 0 0 0
 0 0 0 0 0 0 0 0 0 0
 0 0 0 0 0 0 0 0 0 0
 0 0 0 0 0 0 0 0 0 0
 0 0 0 0 0 0 0 0 0 0
 0 0 0 0 0 0 0 0 0 0
 0 0 0 0 0 0 0 0 0 0
 0 0 0 0 0 0 0 0 0 0
 0 0 0 0 0 0 0 0 0 0
 0 0 0 0 0 0 0 0 0 0
 0 0 0 0 0 0 0 0 0 0
 0 0 0 0 0 0 0 0 0 0
 0 0 0 0 0 0 0 0 0 0
 0 0 0 0 0 0 0 0 0 0
 0 0 0 0 0 0 0 0 0 0
 0 0 0 0 0 0 0 0 0 0
 0 0 0 0 0 0 0 0 0 0
 0 0 0 0 0 0 0 0 0 0
 0 0 0 0 0 0 0 0 0 0
 0 0 0 0 0 0 0 0 0 0
 0 0 0 0 0 0 0 0 0 0
 0 0 0 0 0 0 0 0 0 0
 0 0 0 0 0 0 0 0 0 0
 0 0 0 0 0 0 0 0 0 0
 0 0 0 0 0 0 0 0 0 0
 0 0 0 0 0 0 0 0 0 0
 0 0 0 0 0 0 0 0 0 0
 0 0 0 0 0 0 0 0 0 0
 0 0 0 0 0 0 0 0 0 0
 0 0 0 0 0 0 0 0 0 0
 0 0 0 0 0 0 0 0 0 0
 0 0 0 0 0 0 0 0 0 0
 0 0 0 0 0 0 0 0 0 0
 0 0 0 0 0 0 0 0 0 0
 0 0 0 0 0 0 0 0 0 0
 0 0 0 0 0 0 0 0 0 0
 0 0 0 0 0 0 0 0 0 0
 0 0 0 0 0 0 0 0 0 0
 0 0 0 0 0
        </DataArray>
      </PointData>
      <Points>
        <DataArray type="Float32" NumberOfComponents="3" format="ascii">
  0.000000  0.500000  0.000000
  0.000000  0.490000  0.000000
  0.000000  0.480000  0.000000
  0.000000  0.470000  0.000000
  0.000000  0.460000  0.000000
  0.000000  0.450000  0.000000
  0.000000  0.440000  0.000000
  0.000000  0.430000  0.000000
  0.000000  0.420000  0.000000
  0.000000  0.410000  0.000000
  0.000000  0.400000  0.000000
  0.000000  0.390000  0.000000
  0.000000  0.380000  0.000000
  0.000000  0.370000  0.000000
  0.000000  0.360000  0.000000
  0.000000  0.350000  0.000000
  0.000000  0.340000  0.000000
  0.000000  0.330000  0.000000
  0.000000  0.320000  0.000000
  0.000000  0.310000  0.000000
  0.000000  0.300000  0.000000
  0.000000  0.290000  0.000000
  0.000000  0.280000  0.000000
  0.000000  0.270000  0.000000
  0.000000  0.260000  0.000000
  0.000000  0.250000  0.000000
  0.000000  0.240000  0.000000
  0.000000  0.230000  0.000000
  0.000000  0.220000  0.000000
  0.000000  0.210000  0.000000
  0.000000  0.200000  0.000000
  0.000000  0.190000  0.000000
  0.000000  0.180000  0.000000
  0.000000  0.170000  0.000000
  0.000000  0.160000  0.000000
  0.000000  0.150000  0.000000
  0.000000  0.140000  0.000000
  0.000000  0.130000  0.000000
  0.000000  0.120000  0.000000
  0.000000  0.110000  0.000000
  0.000000  0.100000  0.000000
  0.000000  0.090000  0.000000
  0.000000  0.080000  0.000000
  0.000000  0.070000  0.000000
  0.000000  0.060000  0.000000
  0.000000  0.050000  0.000000
  0.000000  0.040000  0.000000
  0.000000  0.030000  0.000000
  0.000000  0.020000  0.000000
  0.000000  0.010000  0.000000
 -0.100000  0.000000  0.000000
 -0.090000  0.000000  0.000000
 -0.080000  0.000000  0.000000
 -0.070000  0.000000  0.000000
 -0.060000  0.000000  0.000000
 -0.050000  0.000000  0.000000
 -0.040000  0.000000  0.000000
 -0.030000  0.000000  0.000000
 -0.020000  0.000000  0.000000
 -0.010000  0.000000  0.000000
 -0.000000  0.000000  0.000000
  0.010000  0.000000  0.000000
  0.020000  0.000000  0.000000
  0.030000  0.000000  0.000000
  0.040000  0.000000  0.000000
  0.050000  0.000000  0.000000
  0.060000  0.000000  0.000000
  0.070000  0.000000  0.000000
  0.080000  0.000000  0.000000
  0.090000  0.000000  0.000000
  0.100000  0.000000  0.000000
  0.110000  0.000000  0.000000
  0.120000  0.000000  0.000000
  0.130000  0.000000  0.000000
  0.140000  0.000000  0.000000
  0.150000  0.000000  0.000000
  0.160000  0.000000  0.000000
  0.170000  0.000000  0.000000
  0.180000  0.000000  0.000000
  0.190000  0.000000  0.000000
  0.200000  0.000000  0.000000
  0.210000  0.000000  0.000000
  0.220000  0.000000  0.000000
  0.230000  0.000000  0.000000
  0.240000  0.000000  0.000000
  0.250000  0.000000  0.000000
  0.260000  0.000000  0.000000
  0.270000  0.000000  0.000000
  0.280000  0.000000  0.000000
  0.290000  0.000000  0.000000
  0.300000  0.000000  0.000000
  0.310000  0.000000  0.000000
  0.320000  0.000000  0.000000
  0.330000  0.000000  0.000000
  0.340000  0.000000  0.000000
  0.350000  0.000000  0.000000
  0.360000  0.000000  0.000000
  0.370000  0.000000  0.000000
  0.380000  0.000000  0.000000
  0.390000  0.000000  0.000000
  0.400000  0.000000  0.000000
  0.410000  0.000000  0.000000
  0.420000  0.000000  0.000000
  0.430000  0.000000  0.000000
  0.440000  0.000000  0.000000
  0.450000  0.000000  0.000000
  0.460000  0.000000  0.000000
  0.470000  0.000000  0.000000
  0.480000  0.000000  0.000000
  0.490000  0.000000  0.000000
  0.500000  0.000000  0.000000
  0.510000  0.000000  0.000000
  0.520000  0.000000  0.000000
  0.530000  0.000000  0.000000
  0.540000  0.000000  0.000000
  0.550000  0.000000  0.000000
  0.560000  0.000000  0.000000
  0.570000  0.000000  0.000000
  0.580000  0.000000  0.000000
  0.590000  0.000000  0.000000
  0.600000  0.000000  0.000000
  0.610000  0.000000  0.000000
  0.620000  0.000000  0.000000
  0.630000  0.000000  0.000000
  0.640000  0.000000  0.000000
  0.650000  0.000000  0.000000
  0.660000  0.000000  0.000000
  0.670000  0.000000  0.000000
  0.680000  0.000000  0.000000
  0.690000  0.000000  0.000000
  0.700000  0.000000  0.000000
  0.710000  0.000000  0.000000
  0.720000  0.000000  0.000000
  0.730000  0.000000  0.000000
  0.740000  0.000000  0.000000
  0.750000  0.000000  0.000000
  0.760000  0.000000  0.000000
  0.770000  0.000000  0.000000
  0.780000  0.000000  0.000000
  0.790000  0.000000  0.000000
  0.800000  0.000000  0.000000
  0.700000  0.010000  0.000000
  0.700000  0.020000  0.000000
  0.700000  0.030000  0.000000
  0.700000  0.040000  0.000000
  0.700000  0.050000  0.000000
  0.700000  0.060000  0.000000
  0.700000  0.070000  0.000000
  0.700000  0.080000  0.000000
  0.700000  0.090000  0.000000
  0.700000  0.100000  0.000000
  0.700000  0.110000  0.000000
  0.700000  0.120000  0.000000
  0.700000  0.130000  0.000000
  0.700000  0.140000  0.000000
  0.700000  0.150000  0.000000
  0.700000  0.160000  0.000000
  0.700000  0.170000  0.000000
  0.700000  0.180000  0.000000
  0.700000  0.190000  0.000000
  0.700000  0.200000  0.000000
  0.700000  0.210000  0.000000
  0.700000  0.220000  0.000000
  0.700000  0.230000  0.000000
  0.700000  0.240000  0.000000
  0.700000  0.250000  0.000000
  0.700000  0.260000  0.000000
  0.700000  0.270000  0.000000
  0.700000  0.280000  0.000000
  0.700000  0.290000  0.000000
  0.700000  0.300000  0.000000
  0.700000  0.310000  0.000000
  0.700000  0.320000  0.000000
  0.700000  0.330000  0.000000
  0.700000  0.340000  0.000000
  0.700000  0.350000  0.000000
  0.700000  0.360000  0.000000
  0.700000  0.370000  0.000000
  0.700000  0.380000  0.000000
  0.700000  0.390000  0.000000
  0.700000  0.400000  0.000000
  0.700000  0.410000  0.000000
  0.700000  0.420000  0.000000
  0.700000  0.430000  0.000000
  0.700000  0.440000  0.000000
  0.700000  0.450000  0.000000
  0.700000  0.460000  0.000000
  0.700000  0.470000  0.000000
  0.700000  0.480000  0.000000
  0.700000  0.490000  0.000000
  0.700000  0.500000  0.000000
  0.008317  0.010846  0.000000
  0.014007  0.019051  0.000000
  0.025744  0.014247  0.000000
  0.009433  0.025226  0.000000
  0.022941  0.025381  0.000000
  0.010610  0.035100  0.000000
  0.023361  0.033122  0.000000
  0.014483  0.041264  0.000000
  0.022856  0.045679  0.000000
  0.008998  0.049058  0.000000
  0.017501  0.056551  0.000000
  0.008731  0.061150  0.000000
  0.011533  0.070076  0.000000
  0.012751  0.076188  0.000000
  0.010982  0.084138  0.000000
  0.010943  0.091187  0.000000
  0.012257  0.098677  0.000000
  0.010294  0.106447  0.000000
  0.011403  0.114115  0.000000
  0.010878  0.121821  0.000000
  0.010992  0.130278  0.000000
  0.011034  0.137576  0.000000
  0.010863  0.145811  0.000000
  0.011775  0.153306  0.000000
  0.010371  0.161256  0.000000
  0.012586  0.168696  0.000000
  0.009547  0.176555  0.000000
  0.013533  0.185064  0.000000
  0.009097  0.191685  0.000000
  0.014939  0.198627  0.000000
  0.034253  0.010330  0.000000
  0.020799  0.008331  0.000000
  0.042599  0.014480  0.000000
  0.031139  0.023060  0.000000
  0.040384  0.027757  0.000000
  0.036869  0.034778  0.000000
  0.045498  0.040542  0.000000
  0.030693  0.040605  0.000000
  0.038816  0.051203  0.000000
  0.025389  0.054426  0.000000
  0.034393  0.063017  0.000000
  0.025036  0.063775  0.000000
  0.029694  0.072133  0.000000
  0.024182  0.076248  0.000000
  0.029891  0.083814  0.000000
  0.026061  0.089270  0.000000
  0.025424  0.096998  0.000000
  0.025885  0.103035  0.000000
  0.025505  0.110539  0.000000
  0.024872  0.116769  0.000000
  0.024931  0.123822  0.000000
  0.025156  0.130521  0.000000
  0.025007  0.137674  0.000000
  0.025125  0.144417  0.000000
  0.024929  0.151929  0.000000
  0.024963  0.159215  0.000000
  0.024332  0.167488  0.000000
  0.024166  0.175710  0.000000
  0.023316  0.184878  0.000000
  0.022840  0.196422  0.000000
  0.060164  0.009425  0.000000
  0.047470  0.008756  0.000000
  0.056269  0.017523  0.000000
  0.046978  0.023893  0.000000
  0.058764  0.024978  0.000000
  0.055528  0.032626  0.000000
  0.071739  0.034035  0.000000
  0.054100  0.039175  0.000000
  0.060222  0.049922  0.000000
  0.040181  0.049614  0.000000
  0.051550  0.060529  0.000000
  0.044536  0.063825  0.000000
  0.042730  0.072706  0.000000
  0.043388  0.078997  0.000000
  0.045868  0.086050  0.000000
  0.038184  0.090699  0.000000
  0.043423  0.098089  0.000000
  0.040042  0.103281  0.000000
  0.040771  0.110334  0.000000
  0.040290  0.116694  0.000000
  0.040132  0.123769  0.000000
  0.039675  0.130086  0.000000
  0.039409  0.137666  0.000000
  0.038536  0.145246  0.000000
  0.037581  0.153726  0.000000
  0.036218  0.162621  0.000000
  0.034956  0.171696  0.000000
  0.034354  0.181066  0.000000
  0.033405  0.189759  0.000000
  0.032463  0.196704  0.000000
  0.078551  0.011935  0.000000
  0.070318  0.010246  0.000000
  0.081000  0.019765  0.000000
  0.068404  0.020232  0.000000
  0.082992  0.032066  0.000000
  0.073731  0.028433  0.000000
  0.081641  0.044187  0.000000
  0.064737  0.041950  0.000000
  0.072113  0.056648  0.000000
  0.054178  0.053604  0.000000
  0.071321  0.060939  0.000000
  0.061537  0.064620  0.000000
  0.063782  0.072289  0.000000
  0.054959  0.074188  0.000000
  0.060263  0.082119  0.000000
  0.058689  0.088045  0.000000
  0.056711  0.095693  0.000000
  0.056909  0.100843  0.000000
  0.056358  0.108851  0.000000
  0.055716  0.114582  0.000000
  0.055063  0.121614  0.000000
  0.053979  0.128931  0.000000
  0.052301  0.136634  0.000000
  0.050566  0.144324  0.000000
  0.049133  0.152498  0.000000
  0.048151  0.160268  0.000000
  0.047051  0.168438  0.000000
  0.046555  0.176225  0.000000
  0.045666  0.184814  0.000000
  0.045368  0.194650  0.000000
  0.097522  0.011179  0.000000
  0.088260  0.008870  0.000000
  0.098827  0.019365  0.000000
  0.090652  0.022943  0.000000
  0.107702  0.027444  0.000000
  0.094702  0.030235  0.000000
  0.088587  0.039784  0.000000
  0.100599  0.043135  0.000000
  0.071599  0.045920  0.000000
  0.091093  0.052697  0.000000
  0.085287  0.052714  0.000000
  0.082863  0.064679  0.000000
  0.080941  0.069587  0.000000
  0.074090  0.076000  0.000000
  0.076648  0.082714  0.000000
  0.072888  0.087699  0.000000
  0.074295  0.095148  0.000000
  0.072057  0.101057  0.000000
  0.071895  0.107351  0.000000
  0.070489  0.114523  0.000000
  0.068848  0.121708  0.000000
  0.066876  0.128893  0.000000
  0.065401  0.136386  0.000000
  0.064065  0.143784  0.000000
  0.062877  0.151652  0.000000
  0.061461  0.159665  0.000000
  0.059783  0.168289  0.000000
  0.057996  0.177419  0.000000
  0.056147  0.186689  0.000000
  0.054536  0.194374  0.000000
  0.118435  0.011734  0.000000
  0.107535  0.008861  0.000000
  0.119174  0.023969  0.000000
  0.110569  0.018427  0.000000
  0.130362  0.027049  0.000000
  0.115377  0.032498  0.000000
  0.125683  0.035409  0.000000
  0.102267  0.036403  0.000000
  0.112346  0.043550  0.000000
  0.103228  0.051094  0.000000
  0.108371  0.060854  0.000000
  0.097763  0.060127  0.000000
  0.096587  0.067269  0.000000
  0.093162  0.073883  0.000000
  0.091170  0.080266  0.000000
  0.091465  0.085972  0.000000
  0.089772  0.093183  0.000000
  0.089247  0.098897  0.000000
  0.086928  0.105607  0.000000
  0.085220  0.112389  0.000000
  0.083355  0.119241  0.000000
  0.081880  0.125927  0.000000
  0.079884  0.133678  0.000000
  0.077828  0.141204  0.000000
  0.075490  0.149129  0.000000
  0.072880  0.157585  0.000000
  0.070767  0.166103  0.000000
  0.069174  0.174662  0.000000
  0.067970  0.183294  0.000000
  0.067942  0.192517  0.000000
  0.140961  0.008542  0.000000
  0.126613  0.008978  0.000000
  0.139366  0.016043  0.000000
  0.128185  0.018078  0.000000
  0.152458  0.028073  0.000000
  0.142666  0.022828  0.000000
  0.138289  0.032266  0.000000
  0.130352  0.042300  0.000000
  0.118834  0.044901  0.000000
  0.131681  0.050793  0.000000
  0.116923  0.055038  0.000000
  0.119744  0.060005  0.000000
  0.115809  0.068654  0.000000
  0.108635  0.072379  0.000000
  0.110387  0.079921  0.000000
  0.107274  0.084630  0.000000
  0.106534  0.091546  0.000000
  0.104242  0.097706  0.000000
  0.102415  0.104697  0.000000
  0.100915  0.111100  0.000000
  0.098622  0.118120  0.000000
  0.096031  0.125379  0.000000
  0.093252  0.132658  0.000000
  0.090233  0.140326  0.000000
  0.087704  0.148515  0.000000
  0.085914  0.156660  0.000000
  0.084039  0.165016  0.000000
  0.082055  0.173782  0.000000
  0.079531  0.182809  0.000000
  0.077308  0.191050  0.000000
  0.163095  0.009370  0.000000
  0.152706  0.010448  0.000000
  0.167943  0.022663  0.000000
  0.153923  0.017853  0.000000
  0.177911  0.024595  0.000000
  0.161740  0.024676  0.000000
  0.167960  0.034444  0.000000
  0.147164  0.035833  0.000000
  0.153503  0.041215  0.000000
  0.141306  0.043730  0.000000
  0.146855  0.052417  0.000000
  0.134608  0.056032  0.000000
  0.135606  0.063909  0.000000
  0.129761  0.070221  0.000000
  0.126627  0.075614  0.000000
  0.125927  0.081647  0.000000
  0.122290  0.088224  0.000000
  0.121459  0.094507  0.000000
  0.119168  0.100764  0.000000
  0.116914  0.107475  0.000000
  0.113814  0.114456  0.000000
  0.111014  0.121427  0.000000
  0.107471  0.129470  0.000000
  0.104474  0.137133  0.000000
  0.101765  0.145219  0.000000
  0.098787  0.153535  0.000000
  0.095729  0.161837  0.000000
  0.092666  0.170847  0.000000
  0.090315  0.180169  0.000000
  0.089961  0.189084  0.000000
  0.184118  0.008814  0.000000
  0.171159  0.011154  0.000000
  0.194557  0.014206  0.000000
  0.179486  0.015272  0.000000
  0.196534  0.025072  0.000000
  0.188925  0.022473  0.000000
  0.183197  0.032615  0.000000
  0.177357  0.038244  0.000000
  0.162755  0.039129  0.000000
  0.170658  0.047047  0.000000
  0.159448  0.051013  0.000000
  0.151961  0.054996  0.000000
  0.154857  0.067197  0.000000
  0.143750  0.066952  0.000000
  0.147564  0.073716  0.000000
  0.141607  0.079214  0.000000
  0.140966  0.086244  0.000000
  0.138343  0.091350  0.000000
  0.135449  0.098367  0.000000
  0.132652  0.104858  0.000000
  0.129259  0.111781  0.000000
  0.125332  0.119404  0.000000
  0.121557  0.126840  0.000000
  0.117981  0.134712  0.000000
  0.114282  0.142984  0.000000
  0.110881  0.151332  0.000000
  0.107896  0.160231  0.000000
  0.105766  0.168921  0.000000
  0.103015  0.178019  0.000000
  0.100515  0.186619  0.000000
  0.215350  0.011238  0.000000
  0.199690  0.008937  0.000000
  0.223900  0.016470  0.000000
  0.208265  0.015232  0.000000
  0.221366  0.025971  0.000000
  0.208647  0.021904  0.000000
  0.209160  0.030591  0.000000
  0.196756  0.033837  0.000000
  0.190395  0.039274  0.000000
  0.187691  0.047656  0.000000
  0.175588  0.050584  0.000000
  0.179249  0.059553  0.000000
  0.164050  0.059268  0.000000
  0.171519  0.063815  0.000000
  0.163703  0.069642  0.000000
  0.161862  0.077197  0.000000
  0.158647  0.082912  0.000000
  0.155409  0.087927  0.000000
  0.152450  0.095597  0.000000
  0.149486  0.100853  0.000000
  0.145020  0.108582  0.000000
  0.140839  0.115332  0.000000
  0.136321  0.123207  0.000000
  0.132072  0.131196  0.000000
  0.128037  0.139399  0.000000
  0.124473  0.147911  0.000000
  0.121216  0.156243  0.000000
  0.117197  0.165382  0.000000
  0.113451  0.174935  0.000000
  0.111816  0.184018  0.000000
  0.246323  0.011221  0.000000
  0.226824  0.010209  0.000000
  0.252412  0.014625  0.000000
  0.237964  0.011490  0.000000
  0.242929  0.024968  0.000000
  0.235644  0.020098  0.000000
  0.227452  0.029642  0.000000
  0.224896  0.036977  0.000000
  0.212135  0.035944  0.000000
  0.214416  0.044196  0.000000
  0.201854  0.043623  0.000000
  0.199860  0.050233  0.000000
  0.189799  0.055649  0.000000
  0.192452  0.061702  0.000000
  0.182926  0.069636  0.000000
  0.182113  0.073744  0.000000
  0.177491  0.079792  0.000000
  0.174500  0.085860  0.000000
  0.171235  0.091319  0.000000
  0.167081  0.097641  0.000000
  0.162072  0.104338  0.000000
  0.156643  0.111557  0.000000
  0.151270  0.119403  0.000000
  0.146373  0.127492  0.000000
  0.141775  0.135563  0.000000
  0.137714  0.144270  0.000000
  0.132942  0.153192  0.000000
  0.129302  0.162438  0.000000
  0.126259  0.171690  0.000000
  0.123760  0.180552  0.000000
  0.281865  0.011064  0.000000
  0.262695  0.009730  0.000000
  0.283597  0.014444  0.000000
  0.270409  0.012163  0.000000
  0.273426  0.021538  0.000000
  0.258360  0.019111  0.000000
  0.257026  0.028268  0.000000
  0.252717  0.034819  0.000000
  0.240838  0.031010  0.000000
  0.238569  0.038731  0.000000
  0.229769  0.045385  0.000000
  0.221355  0.049243  0.000000
  0.208995  0.054479  0.000000
  0.215895  0.059094  0.000000
  0.204669  0.063673  0.000000
  0.202774  0.067580  0.000000
  0.199729  0.075742  0.000000
  0.195184  0.080048  0.000000
  0.191899  0.085777  0.000000
  0.186327  0.092521  0.000000
  0.180533  0.099524  0.000000
  0.172867  0.107018  0.000000
  0.167164  0.114815  0.000000
  0.161489  0.123134  0.000000
  0.156364  0.131060  0.000000
  0.151062  0.140193  0.000000
  0.146549  0.148645  0.000000
  0.142239  0.157978  0.000000
  0.137340  0.168064  0.000000
  0.134251  0.177241  0.000000
  0.337572  0.013004  0.000000
  0.305644  0.013409  0.000000
  0.316656  0.010743  0.000000
  0.297757  0.008945  0.000000
  0.308641  0.021221  0.000000
  0.295026  0.017794  0.000000
  0.281346  0.028097  0.000000
  0.282543  0.035744  0.000000
  0.268918  0.026332  0.000000
  0.263726  0.035705  0.000000
  0.256192  0.046372  0.000000
  0.247916  0.043433  0.000000
  0.238824  0.049659  0.000000
  0.240725  0.055957  0.000000
  0.226897  0.058389  0.000000
  0.227584  0.063070  0.000000
  0.222512  0.072101  0.000000
  0.216671  0.073375  0.000000
  0.213150  0.080303  0.000000
  0.206775  0.086750  0.000000
  0.198663  0.094237  0.000000
  0.190596  0.101220  0.000000
  0.183821  0.109652  0.000000
  0.177697  0.117716  0.000000
  0.170925  0.126061  0.000000
  0.165433  0.134860  0.000000
  0.159874  0.144085  0.000000
  0.154364  0.153690  0.000000
  0.149896  0.163941  0.000000
  0.147229  0.172436  0.000000
  0.367650  0.012027  0.000000
  0.346286  0.014431  0.000000
  0.352408  0.010223  0.000000
  0.329256  0.009443  0.000000
  0.346286  0.026340  0.000000
  0.320015  0.015885  0.000000
  0.309920  0.030321  0.000000
  0.312612  0.037641  0.000000
  0.293845  0.023874  0.000000
  0.290882  0.034887  0.000000
  0.288775  0.045635  0.000000
  0.273158  0.038593  0.000000
  0.267772  0.045242  0.000000
  0.268444  0.052141  0.000000
  0.256233  0.056166  0.000000
  0.250568  0.057337  0.000000
  0.246388  0.068442  0.000000
  0.239804  0.067859  0.000000
  0.235639  0.074688  0.000000
  0.227605  0.081688  0.000000
  0.217991  0.088394  0.000000
  0.209556  0.095775  0.000000
  0.202457  0.103651  0.000000
  0.194365  0.112061  0.000000
  0.186710  0.119915  0.000000
  0.180550  0.129559  0.000000
  0.173712  0.138697  0.000000
  0.167637  0.148593  0.000000
  0.161999  0.159118  0.000000
  0.157479  0.168027  0.000000
  0.406643  0.012314  0.000000
  0.387110  0.011223  0.000000
  0.395908  0.011322  0.000000
  0.377515  0.010654  0.000000
  0.364725  0.023938  0.000000
  0.361482  0.013485  0.000000
  0.335331  0.019826  0.000000
  0.344973  0.037101  0.000000
  0.319940  0.024319  0.000000
  0.327838  0.030584  0.000000
  0.320876  0.038854  0.000000
  0.300212  0.031480  0.000000
  0.300167  0.042233  0.000000
  0.299905  0.049103  0.000000
  0.282687  0.050231  0.000000
  0.279512  0.055157  0.000000
  0.274123  0.062477  0.000000
  0.265111  0.063943  0.000000
  0.260539  0.069482  0.000000
  0.250815  0.076826  0.000000
  0.239424  0.082739  0.000000
  0.230936  0.089696  0.000000
  0.222279  0.097164  0.000000
  0.213789  0.104894  0.000000
  0.204073  0.112262  0.000000
  0.196897  0.122852  0.000000
  0.188062  0.132179  0.000000
  0.181008  0.142618  0.000000
  0.174394  0.153589  0.000000
  0.169944  0.162380  0.000000
  0.443158  0.012925  0.000000
  0.432019  0.010971  0.000000
  0.408052  0.012583  0.000000
  0.405588  0.026997  0.000000
  0.394523  0.021743  0.000000
  0.376807  0.019588  0.000000
  0.389478  0.023279  0.000000
  0.378324  0.026667  0.000000
  0.354098  0.023510  0.000000
  0.363020  0.032555  0.000000
  0.350496  0.034315  0.000000
  0.332741  0.028739  0.000000
  0.335420  0.043337  0.000000
  0.331378  0.042734  0.000000
  0.316713  0.048200  0.000000
  0.310622  0.050007  0.000000
  0.303009  0.058703  0.000000
  0.294110  0.059501  0.000000
  0.287905  0.065062  0.000000
  0.274463  0.071990  0.000000
  0.263424  0.077145  0.000000
  0.254025  0.083457  0.000000
  0.244988  0.090638  0.000000
  0.234523  0.097532  0.000000
  0.224633  0.105143  0.000000
  0.213866  0.115496  0.000000
  0.202674  0.124612  0.000000
  0.195254  0.135990  0.000000
  0.187409  0.147348  0.000000
  0.181741  0.156323  0.000000
  0.464635  0.019195  0.000000
  0.470363  0.010608  0.000000
  0.460236  0.012107  0.000000
  0.433348  0.019184  0.000000
  0.438664  0.028480  0.000000
  0.422606  0.009527  0.000000
  0.423344  0.019599  0.000000
  0.418022  0.021680  0.000000
  0.393827  0.036296  0.000000
  0.401341  0.032908  0.000000
  0.386150  0.035720  0.000000
  0.372089  0.032941  0.000000
  0.373889  0.043252  0.000000
  0.362848  0.042159  0.000000
  0.354228  0.045472  0.000000
  0.345125  0.050328  0.000000
  0.330846  0.054155  0.000000
  0.323899  0.057617  0.000000
  0.313421  0.062246  0.000000
  0.299924  0.068092  0.000000
  0.288415  0.072150  0.000000
  0.280215  0.078036  0.000000
  0.270190  0.084132  0.000000
  0.258044  0.090662  0.000000
  0.246207  0.097842  0.000000
  0.235711  0.106511  0.000000
  0.222276  0.115328  0.000000
  0.212655  0.125605  0.000000
  0.201668  0.140004  0.000000
  0.195168  0.148796  0.000000
  0.502181  0.013548  0.000000
  0.504223  0.009406  0.000000
  0.486970  0.012751  0.000000
  0.481622  0.011907  0.000000
  0.477213  0.021410  0.000000
  0.448418  0.010001  0.000000
  0.448344  0.021452  0.000000
  0.454243  0.025144  0.000000
  0.433397  0.033285  0.000000
  0.426219  0.045920  0.000000
  0.426010  0.037184  0.000000
  0.414567  0.028257  0.000000
  0.412201  0.039356  0.000000
  0.401908  0.047227  0.000000
  0.384458  0.043281  0.000000
  0.376072  0.049989  0.000000
  0.362447  0.051704  0.000000
  0.352106  0.056519  0.000000
  0.341243  0.057687  0.000000
  0.328122  0.063389  0.000000
  0.317367  0.068139  0.000000
  0.308445  0.073882  0.000000
  0.297642  0.079415  0.000000
  0.283804  0.083560  0.000000
  0.272048  0.091123  0.000000
  0.259506  0.097948  0.000000
  0.246118  0.108162  0.000000
  0.228495  0.118984  0.000000
  0.215242  0.132237  0.000000
  0.207722  0.140028  0.000000
  0.531873  0.010327  0.000000
  0.517575  0.016228  0.000000
  0.518702  0.011008  0.000000
  0.514754  0.020940  0.000000
  0.516102  0.035247  0.000000
  0.491781  0.021862  0.000000
  0.484240  0.036571  0.000000
  0.486853  0.024103  0.000000
  0.470217  0.027024  0.000000
  0.468967  0.033125  0.000000
  0.457407  0.033088  0.000000
  0.448719  0.034714  0.000000
  0.439501  0.038474  0.000000
  0.425875  0.049030  0.000000
  0.412544  0.041110  0.000000
  0.408594  0.055737  0.000000
  0.392336  0.051670  0.000000
  0.386159  0.056067  0.000000
  0.371080  0.058127  0.000000
  0.360142  0.062724  0.000000
  0.347813  0.066530  0.000000
  0.337337  0.071418  0.000000
  0.324852  0.075886  0.000000
  0.310775  0.080334  0.000000
  0.299489  0.086238  0.000000
  0.286715  0.094377  0.000000
  0.273399  0.099851  0.000000
  0.255548  0.106292  0.000000
  0.236273  0.116663  0.000000
  0.221566  0.131831  0.000000
  0.555104  0.009676  0.000000
  0.544079  0.017977  0.000000
  0.544620  0.011985  0.000000
  0.534192  0.014794  0.000000
  0.525804  0.025849  0.000000
  0.507173  0.032651  0.000000
  0.502663  0.024329  0.000000
  0.490662  0.037413  0.000000
  0.502072  0.033854  0.000000
  0.479614  0.049718  0.000000
  0.481912  0.044400  0.000000
  0.466882  0.042385  0.000000
  0.464268  0.048120  0.000000
  0.455151  0.044334  0.000000
  0.444511  0.047994  0.000000
  0.431265  0.058336  0.000000
  0.415673  0.064113  0.000000
  0.406569  0.058321  0.000000
  0.392292  0.061933  0.000000
  0.383230  0.064842  0.000000
  0.371836  0.068812  0.000000
  0.357217  0.071630  0.000000
  0.343405  0.073641  0.000000
  0.335201  0.078172  0.000000
  0.318676  0.085449  0.000000
  0.303556  0.089075  0.000000
  0.289465  0.095503  0.000000
  0.273786  0.101688  0.000000
  0.257448  0.109061  0.000000
  0.240379  0.118936  0.000000
 -0.010000  0.500000  0.000000
 -0.010000  0.490000  0.000000
 -0.010000  0.480000  0.000000
 -0.010000  0.470000  0.000000
 -0.010000  0.460000  0.000000
 -0.010000  0.450000  0.000000
 -0.010000  0.440000  0.000000
 -0.010000  0.430000  0.000000
 -0.010000  0.420000  0.000000
 -0.010000  0.410000  0.000000
 -0.010000  0.400000  0.000000
 -0.010000  0.390000  0.000000
 -0.010000  0.380000  0.000000
 -0.010000  0.370000  0.000000
 -0.010000  0.360000  0.000000
 -0.010000  0.350000  0.000000
 -0.010000  0.340000  0.000000
 -0.010000  0.330000  0.000000
 -0.010000  0.320000  0.000000
 -0.010000  0.310000  0.000000
 -0.010000  0.300000  0.000000
 -0.010000  0.290000  0.000000
 -0.010000  0.280000  0.000000
 -0.010000  0.270000  0.000000
 -0.010000  0.260000  0.000000
 -0.010000  0.250000  0.000000
 -0.010000  0.240000  0.000000
 -0.010000  0.230000  0.000000
 -0.010000  0.220000  0.000000
 -0.010000  0.210000  0.000000
 -0.010000  0.200000  0.000000
 -0.010000  0.190000  0.000000
 -0.010000  0.180000  0.000000
 -0.010000  0.170000  0.000000
 -0.010000  0.160000  0.000000
 -0.010000  0.150000  0.000000
 -0.010000  0.140000  0.000000
 -0.010000  0.130000  0.000000
 -0.010000  0.120000  0.000000
 -0.010000  0.110000  0.000000
 -0.010000  0.100000  0.000000
 -0.010000  0.090000  0.000000
 -0.010000  0.080000  0.000000
 -0.010000  0.070000  0.000000
 -0.010000  0.060000  0.000000
 -0.010000  0.050000  0.000000
 -0.010000  0.040000  0.000000
 -0.010000  0.030000  0.000000
 -0.010000  0.020000  0.000000
 -0.010000  0.010000  0.000000
 -0.100000 -0.010000  0.000000
 -0.090000 -0.010000  0.000000
 -0.080000 -0.010000  0.000000
 -0.070000 -0.010000  0.000000
 -0.060000 -0.010000  0.000000
 -0.050000 -0.010000  0.000000
 -0.040000 -0.010000  0.000000
 -0.030000 -0.010000  0.000000