<?xml version="1.0" encoding="UTF-8"?>
<VTKFile type="UnstructuredGrid" version="1.0" byte_order="LittleEndian">
<UnstructuredGrid>
  <Piece NumberOfPoints="1555" NumberOfCells="1555">
      <PointData>
        <DataArray type="Int32" Name="Type" format="ascii">
 1 1 1 1 1 1 1 1 1 1
 1 1 1 1 1 1 1 1 1 1
 1 1 1 1 1 1 1 1 1 1
 1 1 1 1 1 1 1 1 1 1
 1 1 1 1 1 1 1 1 1 1
 1 1 1 1 1 1 1 1 1 1
 1 3 3 3 3 3 3 3 3 3
 3 3 3 3 3 3 3 3 3 3
 3 3 3 3 3 3 3 3 3 3
 3 3 3 3 3 3 3 3 3 3
 3 3 3 3 3 3 3 3 3 3
 3 3 3 3 3 3 3 3 3 3
 3 3 3 3 3 3 3 3 3 3
 1 1 1 1 1 1 1 1 1 1
 1 1 1 1 1 1 1 1 1 1
 1 1 1 1 1 1 1 1 1 1
 1 1 1 1 1 1 1 1 1 1
 1 1 1 1 1 1 1 1 1 1
 1 1 1 1 1 1 1 1 1 1
 1 2 2 2 2 2 2 2 2 2
 2 2 2 2 2 2 2 2 2 2
 2 2 2 2 2 2 2 2 2 2
 2 2 2 2 2 2 2 2 2 2
 2 2 2 2 2 2 2 2 2 2
 2 2 2 2 2 2 2 2 2 2
 2 2 2 2 2 2 2 2 2 2
 2 2 2 2 2 2 2 2 2 2
 2 2 2 2 2 2 2 2 2 2
 2 2 2 2 2 2 2 2 2 2
 2 2 2 2 2 2 2 2 2 2
 2 2 2 2 2 2 2 2 2 2
 2 2 2 2 2 2 2 2 2 2
 2 2 2 2 2 2 2 2 2 2
 2 2 2 2 2 2 2 2 2 2
 2 2 2 2 2 2 2 2 2 2
 2 2 2 2 2 2 2 2 2 2
 2 2 2 2 2 2 2 2 2 2
 2 2 2 2 2 2 2 2 2 2
 2 2 2 2 2 2 2 2 2 2
 2 2 2 2 2 2 2 2 2 2
 2 2 2 2 2 2 2 2 2 2
 2 2 2 2 2 2 2 2 2 2
 2 2 2 2 2 2 2 2 2 2
 2 2 2 2 2 2 2 2 2 2
 2 2 2 2 2 2 2 2 2 2
 2 2 2 2 2 2 2 2 2 2
 2 2 2 2 2 2 2 2 2 2
 2 2 2 2 2 2 2 2 2 2
 2 2 2 2 2 2 2 2 2 2
 2 2 2 2 2 2 2 2 2 2
 2 2 2 2 2 2 2 2 2 2
 2 2 2 2 2 2 2 2 2 2
 2 2 2 2 2 2 2 2 2 2
 2 2 2 2 2 2 2 2 2 2
 2 2 2 2 2 2 2 2 2 2
 2 2 2 2 2 2 2 2 2 2
 2 2 2 2 2 2 2 2 2 2
 2 2 2 2 2 2 2 2 2 2
 2 2 2 2 2 2 2 2 2 2
 2 2 2 2 2 2 2 2 2 2
 2 2 2 2 2 2 2 2 2 2
 2 2 2 2 2 2 2 2 2 2
 2 2 2 2 2 2 2 2 2 2
 2 2 2 2 2 2 2 2 2 2
 2 2 2 2 2 2 2 2 2 2
 2 2 2 2 2 2 2 2 2 2
 2 2 2 2 2 2 2 2 2 2
 2 2 2 2 2 2 2 2 2 2
 2 2 2 2 2 2 2 2 2 2
 2 2 2 2 2 2 2 2 2 2
 2 2 2 2 2 2 2 2 2 2
 2 2 2 2 2 2 2 2 2 2
 2 2 2 2 2 2 2 2 2 2
 2 2 2 2 2 2 2 2 2 2
 2 2 2 2 2 2 2 2 2 2
 2 2 2 2 2 2 2 2 2 2
 2 2 2 2 2 2 2 2 2 2
 2 2 2 2 2 2 2 2 2 2
 2 2 2 2 2 2 2 2 2 2
 2 0 0 0 0 0 0 0 0 0
 0 0 0 0 0 0 0 0 0 0
 0 0 0 0 0 0 0 0 0 0
 0 0 0 0 0 0 0 0 0 0
 0 0 0 0 0 0 0 0 0 0
 0 0 0 0 0 0 0 0 0 0
 0 0 0 0 0 0 0 0 0 0
 0 0 0 0 0 0 0 0 0 0
 0 0 0 0 0 0 0 0 0 0
 0 0 0 0 0 0 0 0 0 0
 0 0 0 0 0 0 0 0 0 0
 0 0 0 0 0 0 0 0 0 0
 0 0 0 0 0 0 0 0 0 0
 0 0 0 0 0 0 0 0 0 0
 0 0 0 0 0 0 0 0 0 0
 0 0 0 0 0 0 0 0 0 0
 0 0 0 0 0 0 0 0 0 0
 0 0 0 0 0 0 0 0 0 0
 0 0 0 0 0 0 0 0 0 0
 0 0 0 0 0 0 0 0 0 0
 0 0 0 0 0 0 0 0 0 0
 0 0 0 0 0 0 0 0 0 0
 0 0 0 0 0 0 0 0 0 0
 0 0 0 0 0 0 0 0 0 0
 0 0 0 0 0 0 0 0 0 0
 0 0 0 0 0 0 0 0 0 0
 0 0 0 0 0 0 0 0 0 0
 0 0 0 0 0 0 0 0 0 0
 0 0 0 0 0 0 0 0 0 0
 0 0 0 0 0 0 0 0 0 0
 0 0 0 0 0 0 0 0 0 0
 0 0 0 0 0 0 0 0 0 0
 0 0 0 0 0 0 0 0 0 0
 0 0 0 0 0 0 0 0 0 0
 0 0 0 0 0 0 0 0 0 0
 0 0 0 0 0 0 0 0 0 0
 0 0 0 0 0 0 0 0 0 0
 0 0 0 0 0 0 0 0 0 0
 0 0 0 0 0 0 0 0 0 0
 0 0 0 0 0 0 0 0 0 0
 0 0 0 0 0 0 0 0 0 0
 0 0 0 0 0 0 0 0 0 0
 0 0 0 0 0 0 0 0 0 0
 0 0 0 0 0 0 0 0 0 0
 0 0 0 0 0 0 0 0 0 0
 0 0 0 0 0 0 0 0 0 0
 0 0 0 0 0 0 0 0 0 0
 0 0 0 0 0 0 0 0 0 0
 0 0 0 0 0 0 0 0 0 0
 0 0 0 0 0 0 0 0 0 0
 0 0 0 0 0 0 0 0 0 0
 0 0 0 0 0 0 0 0 0 0
 0 0 0 0 0 0 0 0 0 0
 0 0 0 0 0 0 0 0 0 0
 0 0 0 0 0 0 0 0 0 0
 0 0 0 0 0 0 0 0 0 0
 0 0 0 0 0 0 0 0 0 0
 0 0 0 0 0 0 0 0 0 0
 0 0 0 0 0 0 0 0 0 0
 0 0 0 0 0 0 0 0 0 0
 0 0 0 0 0 0 0 0 0 0
 0 0 0 0 0 0 0 0 0 0
 0 0 0 0 0 0 0 0 0 0
 0 0 0 0 0 0 0 0 0 0
 0 0 0 0 0 0 0 0 0 0
 0 0 0 0 0 0 0 0 0 0
 0 0 0 0 0 0 0 0 0 0
 0 0 0 0 0 0 0 0 0 0
 0 0 0 0 0 0 0 0 0 0
 0 0 0 0 0 0 0 0 0 0
 0 0 0 0 0 0 0 0 0 0
 0 0 0 0 0 0 0 0 0 0
 0 0 0 0 0 0 0 0 0 0
 0 0 0 0 0 0 0 0 0 0
 0 0 0 0 0 0 0 0 0 0
 0 0 0 0 0 0 0 0 0 0
 0 0 0 0 0
        </DataArray>
      </PointData>
      <Points>
        <DataArray type="Float32" NumberOfComponents="3" format="ascii">
  0.000000  0.500000  0.000000
  0.000000  0.490000  0.000000
  0.000000  0.480000  0.000000
  0.000000  0.470000  0.000000
  0.000000  0.460000  0.000000
  0.000000  0.450000  0.000000
  0.000000  0.440000  0.000000
  0.000000  0.430000  0.000000
  0.000000  0.420000  0.000000
  0.000000  0.410000  0.000000
  0.000000  0.400000  0.000000
  0.000000  0.390000  0.000000
  0.000000  0.380000  0.000000
  0.000000  0.370000  0.000000
  0.000000  0.360000  0.000000
  0.000000  0.350000  0.000000
  0.000000  0.340000  0.000000
  0.000000  0.330000  0.000000
  0.000000  0.320000  0.000000
  0.000000  0.310000  0.000000
  0.000000  0.300000  0.000000
  0.000000  0.290000  0.000000
  0.000000  0.280000  0.000000
  0.000000  0.270000  0.000000
  0.000000  0.260000  0.000000
  0.000000  0.250000  0.000000
  0.000000  0.240000  0.000000
  0.000000  0.230000  0.000000
  0.000000  0.220000  0.000000
  0.000000  0.210000  0.000000
  0.000000  0.200000  0.000000
  0.000000  0.190000  0.000000
  0.000000  0.180000  0.000000
  0.000000  0.170000  0.000000
  0.000000  0.160000  0.000000
  0.000000  0.150000  0.000000
  0.000000  0.140000  0.000000
  0.000000  0.130000  0.000000
  0.000000  0.120000  0.000000
  0.000000  0.110000  0.000000
  0.000000  0.100000  0.000000
  0.000000  0.090000  0.000000
  0.000000  0.080000  0.000000
  0.000000  0.070000  0.000000
  0.000000  0.060000  0.000000
  0.000000  0.050000  0.000000
  0.000000  0.040000  0.000000
  0.000000  0.030000  0.000000
  0.000000  0.020000  0.000000
  0.000000  0.010000  0.000000
 -0.100000  0.000000  0.000000
 -0.090000  0.000000  0.000000
 -0.080000  0.000000  0.000000
 -0.070000  0.000000  0.000000
 -0.060000  0.000000  0.000000
 -0.050000  0.000000  0.000000
 -0.040000  0.000000  0.000000
 -0.030000  0.000000  0.000000
 -0.020000  0.000000  0.000000
 -0.010000  0.000000  0.000000
 -0.000000  0.000000  0.000000
  0.010000  0.000000  0.000000
  0.020000  0.000000  0.000000
  0.030000  0.000000  0.000000
  0.040000  0.000000  0.000000
  0.050000  0.000000  0.000000
  0.060000  0.000000  0.000000
  0.070000  0.000000  0.000000
  0.080000  0.000000  0.000000
  0.090000  0.000000  0.000000
  0.100000  0.000000  0.000000
  0.110000  0.000000  0.000000
  0.120000  0.000000  0.000000
  0.130000  0.000000  0.000000
  0.140000  0.000000  0.000000
  0.150000  0.000000  0.000000
  0.160000  0.000000  0.000000
  0.170000  0.000000  0.000000
  0.180000  0.000000  0.000000
  0.190000  0.000000  0.000000
  0.200000  0.000000  0.000000
  0.210000  0.000000  0.000000
  0.220000  0.000000  0.000000
  0.230000  0.000000  0.000000
  0.240000  0.000000  0.000000
  0.250000  0.000000  0.000000
  0.260000  0.000000  0.000000
  0.270000  0.000000  0.000000
  0.280000  0.000000  0.000000
  0.290000  0.000000  0.000000
  0.300000  0.000000  0.000000
  0.310000  0.000000  0.000000
  0.320000  0.000000  0.000000
  0.330000  0.000000  0.000000
  0.340000  0.000000  0.000000
  0.350000  0.000000  0.000000
  0.360000  0.000000  0.000000
  0.370000  0.000000  0.000000
  0.380000  0.000000  0.000000
  0.390000  0.000000  0.000000
  0.400000  0.000000  0.000000
  0.410000  0.000000  0.000000
  0.420000  0.000000  0.000000
  0.430000  0.000000  0.000000
  0.440000  0.000000  0.000000
  0.450000  0.000000  0.000000
  0.460000  0.000000  0.000000
  0.470000  0.000000  0.000000
  0.480000  0.000000  0.000000
  0.490000  0.000000  0.000000
  0.500000  0.000000  0.000000
  0.510000  0.000000  0.000000
  0.520000  0.000000  0.000000
  0.530000  0.000000  0.000000
  0.540000  0.000000  0.000000
  0.550000  0.000000  0.000000
  0.560000  0.000000  0.000000
  0.570000  0.000000  0.000000
  0.580000  0.000000  0.000000
  0.590000  0.000000  0.000000
  0.600000  0.000000  0.000000
  0.610000  0.000000  0.000000
  0.620000  0.000000  0.000000
  0.630000  0.000000  0.000000
  0.640000  0.000000  0.000000
  0.650000  0.000000  0.000000
  0.660000  0.000000  0.000000
  0.670000  0.000000  0.000000
  0.680000  0.000000  0.000000
  0.690000  0.000000  0.000000
  0.700000  0.000000  0.000000
  0.710000  0.000000  0.000000
  0.720000  0.000000  0.000000
  0.730000  0.000000  0.000000
  0.740000  0.000000  0.000000
  0.750000  0.000000  0.000000
  0.760000  0.000000  0.000000
  0.770000  0.000000  0.000000
  0.780000  0.000000  0.000000
  0.790000  0.000000  0.000000
  0.800000  0.000000  0.000000
  0.700000  0.010000  0.000000
  0.700000  0.020000  0.000000
  0.700000  0.030000  0.000000
  0.700000  0.040000  0.000000
  0.700000  0.050000  0.000000
  0.700000  0.060000  0.000000
  0.700000  0.070000  0.000000
  0.700000  0.080000  0.000000
  0.700000  0.090000  0.000000
  0.700000  0.100000  0.000000
  0.700000  0.110000  0.000000
  0.700000  0.120000  0.000000
  0.700000  0.130000  0.000000
  0.700000  0.140000  0.000000
  0.700000  0.150000  0.000000
  0.700000  0.160000  0.000000
  0.700000  0.170000  0.000000
  0.700000  0.180000  0.000000
  0.700000  0.190000  0.000000
  0.700000  0.200000  0.000000
  0.700000  0.210000  0.000000
  0.700000  0.220000  0.000000
  0.700000  0.230000  0.000000
  0.700000  0.240000  0.000000
  0.700000  0.250000  0.000000
  0.700000  0.260000  0.000000
  0.700000  0.270000  0.000000
  0.700000  0.280000  0.000000
  0.700000  0.290000  0.000000
  0.700000  0.300000  0.000000
  0.700000  0.310000  0.000000
  0.700000  0.320000  0.000000
  0.700000  0.330000  0.000000
  0.700000  0.340000  0.000000
  0.700000  0.350000  0.000000
  0.700000  0.360000  0.000000
  0.700000  0.370000  0.000000
  0.700000  0.380000  0.000000
  0.700000  0.390000  0.000000
  0.700000  0.400000  0.000000
  0.700000  0.410000  0.000000
  0.700000  0.420000  0.000000
  0.700000  0.430000  0.000000
  0.700000  0.440000  0.000000
  0.700000  0.450000  0.000000
  0.700000  0.460000  0.000000
  0.700000  0.470000  0.000000
  0.700000  0.480000  0.000000
  0.700000  0.490000  0.000000
  0.700000  0.500000  0.000000
  0.011513  0.008839  0.000000
  0.021332  0.015673  0.000000
  0.030050  0.017230  0.000000
  0.010191  0.016430  0.000000
  0.017626  0.027001  0.000000
  0.009772  0.027226  0.000000
  0.028152  0.026239  0.000000
  0.030520  0.034805  0.000000
  0.038668  0.035468  0.000000
  0.019173  0.036528  0.000000
  0.029303  0.044148  0.000000
  0.009106  0.039007  0.000000
  0.011534  0.048668  0.000000
  0.009112  0.058172  0.000000
  0.009245  0.070709  0.000000
  0.017133  0.075317  0.000000
  0.021935  0.081497  0.000000
  0.009861  0.082280  0.000000
  0.018006  0.094756  0.000000
  0.008660  0.093480  0.000000
  0.013153  0.104397  0.000000
  0.010515  0.109144  0.000000
  0.010242  0.120716  0.000000
  0.011885  0.125787  0.000000
  0.009875  0.135398  0.000000
  0.015331  0.142464  0.000000
  0.010850  0.145965  0.000000
  0.019786  0.156024  0.000000
  0.007458  0.158349  0.000000
  0.022826  0.158740  0.000000
  0.041005  0.009890  0.000000
  0.027341  0.008042  0.000000
  0.049172  0.010093  0.000000
  0.040356  0.019768  0.000000
  0.054307  0.017976  0.000000
  0.054150  0.030684  0.000000
  0.070190  0.026388  0.000000
  0.043175  0.025416  0.000000
  0.047441  0.049802  0.000000
  0.043365  0.043687  0.000000
  0.036630  0.054490  0.000000
  0.019249  0.047094  0.000000
  0.038788  0.061322  0.000000
  0.028454  0.052947  0.000000
  0.047924  0.067333  0.000000
  0.017401  0.062457  0.000000
  0.022983  0.062487  0.000000
  0.030886  0.073889  0.000000
  0.036212  0.084121  0.000000
  0.022201  0.089744  0.000000
  0.032188  0.100486  0.000000
  0.029140  0.103069  0.000000
  0.022326  0.110791  0.000000
  0.029417  0.114763  0.000000
  0.023426  0.122061  0.000000
  0.028137  0.127694  0.000000
  0.025255  0.133361  0.000000
  0.029110  0.140561  0.000000
  0.028264  0.146269  0.000000
  0.029690  0.160247  0.000000
  0.079073  0.008953  0.000000
  0.062613  0.008248  0.000000
  0.068137  0.014348  0.000000
  0.060102  0.021087  0.000000
  0.076473  0.024847  0.000000
  0.088184  0.024943  0.000000
  0.104681  0.025796  0.000000
  0.078150  0.036236  0.000000
  0.079072  0.046508  0.000000
  0.050126  0.035401  0.000000
  0.064153  0.048144  0.000000
  0.062841  0.040465  0.000000
  0.052659  0.060837  0.000000
  0.053106  0.074710  0.000000
  0.066700  0.075440  0.000000
  0.032307  0.068964  0.000000
  0.054026  0.082794  0.000000
  0.042756  0.076745  0.000000
  0.046254  0.088737  0.000000
  0.035226  0.090026  0.000000
  0.046807  0.098397  0.000000
  0.045256  0.102580  0.000000
  0.043720  0.111479  0.000000
  0.039689  0.116646  0.000000
  0.044558  0.123289  0.000000
  0.042941  0.129426  0.000000
  0.042400  0.136322  0.000000
  0.042453  0.142920  0.000000
  0.040561  0.152099  0.000000
  0.037374  0.156432  0.000000
  0.104952  0.009660  0.000000
  0.092429  0.009642  0.000000
  0.105838  0.021259  0.000000
  0.079832  0.014954  0.000000
  0.107745  0.036539  0.000000
  0.095080  0.015091  0.000000
  0.097399  0.036584  0.000000
  0.091307  0.026787  0.000000
  0.085468  0.049829  0.000000
  0.064472  0.035113  0.000000
  0.097955  0.050235  0.000000
  0.067815  0.056088  0.000000
  0.087746  0.058797  0.000000
  0.054923  0.050891  0.000000
  0.060720  0.064861  0.000000
  0.075254  0.057298  0.000000
  0.069580  0.067098  0.000000
  0.073386  0.080513  0.000000
  0.065057  0.084721  0.000000
  0.059118  0.091502  0.000000
  0.066451  0.099737  0.000000
  0.060139  0.100437  0.000000
  0.056184  0.112532  0.000000
  0.061118  0.111739  0.000000
  0.059042  0.121563  0.000000
  0.057372  0.127694  0.000000
  0.057935  0.135567  0.000000
  0.055092  0.142927  0.000000
  0.052866  0.150900  0.000000
  0.054818  0.157816  0.000000
  0.129767  0.009019  0.000000
  0.114536  0.009984  0.000000
  0.128528  0.016437  0.000000
  0.116965  0.016326  0.000000
  0.139394  0.021977  0.000000
  0.119893  0.025526  0.000000
  0.115822  0.033441  0.000000
  0.128324  0.035095  0.000000
  0.083260  0.038259  0.000000
  0.118733  0.045117  0.000000
  0.098143  0.041976  0.000000
  0.115249  0.045858  0.000000
  0.106114  0.053133  0.000000
  0.094928  0.061738  0.000000
  0.102961  0.069418  0.000000
  0.081099  0.066560  0.000000
  0.090957  0.072476  0.000000
  0.083612  0.074754  0.000000
  0.088903  0.089342  0.000000
  0.079955  0.086597  0.000000
  0.075977  0.095216  0.000000
  0.080054  0.100443  0.000000
  0.077029  0.107414  0.000000
  0.074386  0.113827  0.000000
  0.075563  0.119130  0.000000
  0.072223  0.127301  0.000000
  0.070165  0.132272  0.000000
  0.069217  0.141549  0.000000
  0.067552  0.148452  0.000000
  0.063923  0.154042  0.000000
  0.150953  0.008817  0.000000
  0.139020  0.011068  0.000000
  0.158950  0.023040  0.000000
  0.145987  0.019876  0.000000
  0.180243  0.016878  0.000000
  0.152667  0.030748  0.000000
  0.169824  0.020701  0.000000
  0.128873  0.027567  0.000000
  0.141185  0.031858  0.000000
  0.150935  0.041346  0.000000
  0.139441  0.049680  0.000000
  0.140892  0.039088  0.000000
  0.130488  0.043938  0.000000
  0.117672  0.061194  0.000000
  0.106602  0.060049  0.000000
  0.114238  0.071109  0.000000
  0.102980  0.078039  0.000000
  0.114944  0.077134  0.000000
  0.093166  0.082595  0.000000
  0.105780  0.087202  0.000000
  0.096597  0.093920  0.000000
  0.098071  0.101045  0.000000
  0.092905  0.105262  0.000000
  0.093398  0.112038  0.000000
  0.091294  0.118978  0.000000
  0.087283  0.125002  0.000000
  0.085342  0.131705  0.000000
  0.084035  0.138946  0.000000
  0.079726  0.147756  0.000000
  0.081413  0.152879  0.000000
  0.191002  0.008521  0.000000
  0.166111  0.011275  0.000000
  0.174141  0.008804  0.000000
  0.155891  0.013674  0.000000
  0.207025  0.026523  0.000000
  0.187828  0.016163  0.000000
  0.186423  0.027194  0.000000
  0.174217  0.027382  0.000000
  0.160886  0.031078  0.000000
  0.169616  0.040599  0.000000
  0.160557  0.042376  0.000000
  0.167975  0.052735  0.000000
  0.149493  0.054633  0.000000
  0.129085  0.052876  0.000000
  0.135617  0.059622  0.000000
  0.122587  0.060991  0.000000
  0.130703  0.069711  0.000000
  0.128226  0.076273  0.000000
  0.126586  0.083208  0.000000
  0.112287  0.088070  0.000000
  0.120019  0.094252  0.000000
  0.113283  0.098638  0.000000
  0.110999  0.106009  0.000000
  0.110935  0.111102  0.000000
  0.104714  0.116396  0.000000
  0.104004  0.124742  0.000000
  0.100801  0.130214  0.000000
  0.097060  0.137174  0.000000
  0.094511  0.145511  0.000000
  0.091409  0.150286  0.000000
  0.212250  0.010773  0.000000
  0.199598  0.012526  0.000000
  0.239338  0.019655  0.000000
  0.206758  0.016099  0.000000
  0.242639  0.026915  0.000000
  0.219991  0.013661  0.000000
  0.223169  0.028276  0.000000
  0.198115  0.024644  0.000000
  0.211851  0.033136  0.000000
  0.199329  0.034276  0.000000
  0.188866  0.033053  0.000000
  0.175855  0.035369  0.000000
  0.176781  0.046623  0.000000
  0.153380  0.050615  0.000000
  0.159966  0.063387  0.000000
  0.149887  0.065650  0.000000
  0.141800  0.064890  0.000000
  0.155004  0.072597  0.000000
  0.140769  0.076957  0.000000
  0.145623  0.080635  0.000000
  0.136948  0.088028  0.000000
  0.130431  0.091795  0.000000
  0.132338  0.101792  0.000000
  0.127298  0.104089  0.000000
  0.125701  0.113080  0.000000
  0.121731  0.119426  0.000000
  0.116581  0.125606  0.000000
  0.112969  0.133956  0.000000
  0.109106  0.143166  0.000000
  0.106421  0.148576  0.000000
  0.245828  0.012419  0.000000
  0.228790  0.011224  0.000000
  0.255155  0.010748  0.000000
  0.235395  0.012265  0.000000
  0.270091  0.019155  0.000000
  0.257036  0.015806  0.000000
  0.253905  0.024769  0.000000
  0.237757  0.031224  0.000000
  0.222167  0.021875  0.000000
  0.225002  0.034040  0.000000
  0.207526  0.040616  0.000000
  0.203129  0.049818  0.000000
  0.202470  0.055544  0.000000
  0.186524  0.043970  0.000000
  0.189233  0.056678  0.000000
  0.168305  0.058255  0.000000
  0.181675  0.056334  0.000000
  0.172683  0.066218  0.000000
  0.169217  0.074418  0.000000
  0.161545  0.078541  0.000000
  0.159625  0.085710  0.000000
  0.150381  0.088834  0.000000
  0.149513  0.095442  0.000000
  0.145688  0.101403  0.000000
  0.143065  0.107883  0.000000
  0.136583  0.116249  0.000000
  0.131271  0.123028  0.000000
  0.127206  0.131790  0.000000
  0.122883  0.139908  0.000000
  0.121236  0.144751  0.000000
  0.295120  0.011858  0.000000
  0.269336  0.010134  0.000000
  0.309934  0.015285  0.000000
  0.276297  0.013298  0.000000
  0.307981  0.031291  0.000000
  0.286488  0.011194  0.000000
  0.300115  0.025276  0.000000
  0.265216  0.026303  0.000000
  0.255321  0.036814  0.000000
  0.241535  0.038768  0.000000
  0.235051  0.042691  0.000000
  0.229829  0.049555  0.000000
  0.192548  0.045061  0.000000
  0.222244  0.042812  0.000000
  0.214228  0.047210  0.000000
  0.212606  0.058723  0.000000
  0.200566  0.066587  0.000000
  0.188888  0.064059  0.000000
  0.190651  0.073176  0.000000
  0.179932  0.071709  0.000000
  0.182534  0.080487  0.000000
  0.174140  0.084601  0.000000
  0.171304  0.091987  0.000000
  0.165407  0.097513  0.000000
  0.159885  0.104130  0.000000
  0.151816  0.112481  0.000000
  0.147449  0.119638  0.000000
  0.143438  0.126545  0.000000
  0.139218  0.135518  0.000000
  0.134437  0.140106  0.000000
  0.337290  0.011445  0.000000
  0.301263  0.012929  0.000000
  0.350183  0.011209  0.000000
  0.329038  0.011799  0.000000
  0.348820  0.015045  0.000000
  0.315966  0.009544  0.000000
  0.320639  0.020066  0.000000
  0.312831  0.024654  0.000000
  0.290989  0.023828  0.000000
  0.288723  0.037774  0.000000
  0.283944  0.022132  0.000000
  0.261410  0.032881  0.000000
  0.254126  0.043901  0.000000
  0.258987  0.053641  0.000000
  0.246730  0.049041  0.000000
  0.234246  0.060354  0.000000
  0.223969  0.054662  0.000000
  0.220108  0.063513  0.000000
  0.216639  0.071549  0.000000
  0.207366  0.068841  0.000000
  0.199395  0.079546  0.000000
  0.197021  0.082783  0.000000
  0.188118  0.089345  0.000000
  0.185296  0.094481  0.000000
  0.176055  0.100090  0.000000
  0.168621  0.108307  0.000000
  0.163552  0.114106  0.000000
  0.159131  0.122685  0.000000
  0.153364  0.134655  0.000000
  0.147529  0.136852  0.000000
  0.395822  0.012436  0.000000
  0.371096  0.012194  0.000000
  0.405553  0.012504  0.000000
  0.383495  0.011495  0.000000
  0.389823  0.013497  0.000000
  0.362831  0.010873  0.000000
  0.359994  0.019226  0.000000
  0.344903  0.028355  0.000000
  0.333469  0.017673  0.000000
  0.327992  0.026605  0.000000
  0.319916  0.036691  0.000000
  0.295599  0.035442  0.000000
  0.278627  0.030114  0.000000
  0.285012  0.047519  0.000000
  0.269022  0.041920  0.000000
  0.267303  0.051592  0.000000
  0.258677  0.062707  0.000000
  0.246856  0.055679  0.000000
  0.249623  0.067576  0.000000
  0.239723  0.062320  0.000000
  0.230809  0.071024  0.000000
  0.228878  0.076691  0.000000
  0.212735  0.079252  0.000000
  0.209247  0.090741  0.000000
  0.198405  0.095988  0.000000
  0.188330  0.104181  0.000000
  0.183006  0.110898  0.000000
  0.175469  0.118025  0.000000
  0.168757  0.126149  0.000000
  0.164051  0.131486  0.000000
  0.485069  0.012010  0.000000
  0.440098  0.011773  0.000000
  0.450118  0.013412  0.000000
  0.424728  0.010245  0.000000
  0.435053  0.013564  0.000000
  0.411248  0.011269  0.000000
  0.396555  0.027314  0.000000
  0.393850  0.027748  0.000000
  0.376331  0.017580  0.000000
  0.365796  0.025461  0.000000
  0.350120  0.026552  0.000000
  0.339028  0.033372  0.000000
  0.326292  0.033199  0.000000
  0.329999  0.047211  0.000000
  0.303547  0.039405  0.000000
  0.301107  0.050827  0.000000
  0.293462  0.049814  0.000000
  0.277579  0.034997  0.000000
  0.275740  0.047221  0.000000
  0.281488  0.056955  0.000000
  0.267794  0.062428  0.000000
  0.254553  0.073190  0.000000
  0.240178  0.074958  0.000000
  0.222898  0.084439  0.000000
  0.216799  0.088344  0.000000
  0.207330  0.097420  0.000000
  0.200579  0.104854  0.000000
  0.191717  0.112131  0.000000
  0.185454  0.123813  0.000000
  0.177514  0.126868  0.000000
  0.526453  0.011855  0.000000
  0.490621  0.013268  0.000000
  0.505789  0.011379  0.000000
  0.473579  0.013664  0.000000
  0.491382  0.024712  0.000000
  0.457227  0.011208  0.000000
  0.436415  0.026853  0.000000
  0.440891  0.035233  0.000000
  0.407891  0.022156  0.000000
  0.418922  0.027495  0.000000
  0.404982  0.037231  0.000000
  0.379495  0.026542  0.000000
  0.366945  0.031532  0.000000
  0.374206  0.041079  0.000000
  0.353668  0.038502  0.000000
  0.337507  0.042741  0.000000
  0.342259  0.055963  0.000000
  0.315044  0.042615  0.000000
  0.318419  0.055812  0.000000
  0.310695  0.049550  0.000000
  0.294807  0.062025  0.000000
  0.280656  0.062939  0.000000
  0.271243  0.070307  0.000000
  0.251632  0.080631  0.000000
  0.241101  0.083771  0.000000
  0.232325  0.092179  0.000000
  0.223290  0.101858  0.000000
  0.211946  0.107559  0.000000
  0.203448  0.117060  0.000000
  0.195366  0.121816  0.000000
  0.577814  0.009951  0.000000
  0.545890  0.014328  0.000000
  0.560788  0.010484  0.000000
  0.540935  0.010420  0.000000
  0.514857  0.027156  0.000000
  0.515101  0.011387  0.000000
  0.469679  0.010975  0.000000
  0.482092  0.038186  0.000000
  0.445422  0.024405  0.000000
  0.457542  0.018507  0.000000
  0.452651  0.028990  0.000000
  0.421197  0.016651  0.000000
  0.428971  0.023166  0.000000
  0.423479  0.033088  0.000000
  0.382046  0.031796  0.000000
  0.391356  0.039403  0.000000
  0.382197  0.041805  0.000000
  0.360692  0.037960  0.000000
  0.357308  0.050895  0.000000
  0.346177  0.041469  0.000000
  0.328103  0.050617  0.000000
  0.307608  0.059345  0.000000
  0.296541  0.066916  0.000000
  0.285199  0.070280  0.000000
  0.266600  0.076132  0.000000
  0.259480  0.086539  0.000000
  0.238303  0.089314  0.000000
  0.230401  0.099872  0.000000
  0.223283  0.114955  0.000000
  0.211020  0.114791  0.000000
  0.605188  0.010877  0.000000
  0.592955  0.011506  0.000000
  0.566356  0.017697  0.000000
  0.573052  0.031314  0.000000
  0.558318  0.013573  0.000000
  0.527558  0.013523  0.000000
  0.548646  0.027334  0.000000
  0.530845  0.025686  0.000000
  0.499664  0.013622  0.000000
  0.511283  0.020688  0.000000
  0.500440  0.026510  0.000000
  0.483093  0.023622  0.000000
  0.468329  0.027623  0.000000
  0.472251  0.023850  0.000000
  0.453767  0.040594  0.000000
  0.432896  0.041348  0.000000
  0.421582  0.044413  0.000000
  0.409606  0.029792  0.000000
  0.402578  0.042586  0.000000
  0.383399  0.052768  0.000000
  0.367832  0.046746  0.000000
  0.348780  0.055759  0.000000
  0.331475  0.061643  0.000000
  0.321399  0.066487  0.000000
  0.305462  0.070664  0.000000
  0.284914  0.078808  0.000000
  0.267882  0.082087  0.000000
  0.255917  0.095461  0.000000
  0.241611  0.104265  0.000000
  0.226572  0.109666  0.000000
  0.631860  0.016479  0.000000
  0.640672  0.018691  0.000000
  0.635280  0.009841  0.000000
  0.604308  0.018708  0.000000
  0.606675  0.034271  0.000000
  0.583642  0.014996  0.000000
  0.592766  0.017289  0.000000
  0.575580  0.019609  0.000000
  0.560147  0.045892  0.000000
  0.558131  0.029602  0.000000
  0.541929  0.019665  0.000000
  0.525721  0.026389  0.000000
  0.523911  0.038894  0.000000
  0.513511  0.033730  0.000000
  0.498884  0.032107  0.000000
  0.493420  0.040580  0.000000
  0.463131  0.042767  0.000000
  0.461012  0.031517  0.000000
  0.441896  0.043661  0.000000
  0.420234  0.043945  0.000000
  0.397632  0.047681  0.000000
  0.392286  0.057065  0.000000
  0.372031  0.054611  0.000000
  0.361597  0.064141  0.000000
  0.335122  0.071451  0.000000
  0.319082  0.066060  0.000000
  0.305126  0.077235  0.000000
  0.283292  0.082149  0.000000
  0.265148  0.097477  0.000000
  0.250444  0.099695  0.000000
  0.665044  0.012438  0.000000
  0.673129  0.023227  0.000000
  0.661464  0.016295  0.000000
  0.647459  0.011738  0.000000
  0.653537  0.012516  0.000000
  0.622712  0.011488  0.000000
  0.612056  0.014355  0.000000
  0.621360  0.019213  0.000000
  0.579735  0.032252  0.000000
  0.577868  0.055327  0.000000
  0.595095  0.039403  0.000000
  0.591965  0.028480  0.000000
  0.586714  0.037424  0.000000
  0.568774  0.051131  0.000000
  0.541879  0.033180  0.000000
  0.534120  0.036721  0.000000
  0.515533  0.042561  0.000000
  0.499530  0.047283  0.000000
  0.479672  0.040541  0.000000
  0.467451  0.052008  0.000000
  0.452693  0.048563  0.000000
  0.441762  0.055930  0.000000
  0.413101  0.056964  0.000000
  0.403600  0.056210  0.000000
  0.378174  0.061856  0.000000
  0.360903  0.057613  0.000000
  0.338789  0.080052  0.000000
  0.310576  0.087539  0.000000
  0.281574  0.092590  0.000000
  0.270931  0.094083  0.000000
  0.684866  0.022752  0.000000
  0.676854  0.008321  0.000000
  0.679110  0.015329  0.000000
  0.681584  0.038992  0.000000
  0.677675  0.056126  0.000000
  0.669807  0.026938  0.000000
  0.646456  0.043223  0.000000
  0.653916  0.027768  0.000000
  0.644610  0.027974  0.000000
  0.643433  0.032041  0.000000
  0.629383  0.030618  0.000000
  0.621171  0.027990  0.000000
  0.608347  0.028039  0.000000
  0.599838  0.044703  0.000000
  0.565005  0.028153  0.000000
  0.580593  0.043553  0.000000
  0.549720  0.035841  0.000000
  0.551577  0.047933  0.000000
  0.525044  0.054672  0.000000
  0.514817  0.052756  0.000000
  0.491279  0.054868  0.000000
  0.471811  0.038791  0.000000
  0.468020  0.060460  0.000000
  0.430930  0.055553  0.000000
  0.416561  0.059429  0.000000
  0.404914  0.064533  0.000000
  0.378579  0.070976  0.000000
  0.342908  0.062861  0.000000
  0.309184  0.080619  0.000000
  0.293533  0.083967  0.000000
  0.671021  0.079590  0.000000
  0.689694  0.020956  0.000000
  0.680842  0.052104  0.000000
  0.687813  0.082550  0.000000
  0.691406  0.046158  0.000000
  0.671062  0.040081  0.000000
  0.683975  0.034809  0.000000
  0.660421  0.029622  0.000000
  0.671283  0.043907  0.000000
  0.647628  0.044167  0.000000
  0.656772  0.042311  0.000000
  0.627880  0.036753  0.000000
  0.622205  0.048587  0.000000
  0.613165  0.046933  0.000000
  0.617764  0.038566  0.000000
  0.602814  0.047329  0.000000
  0.584994  0.054070  0.000000
  0.563311  0.044475  0.000000
  0.538764  0.049178  0.000000
  0.542068  0.049795  0.000000
  0.526185  0.049029  0.000000
  0.505868  0.045741  0.000000
  0.490010  0.049238  0.000000
  0.467553  0.056766  0.000000
  0.450948  0.054585  0.000000
  0.427346  0.058968  0.000000
  0.391641  0.062779  0.000000
  0.372445  0.068075  0.000000
  0.343730  0.074478  0.000000
  0.327564  0.077312  0.000000
 -0.010000  0.500000  0.000000
 -0.010000  0.490000  0.000000
 -0.010000  0.480000  0.000000
 -0.010000  0.470000  0.000000
 -0.010000  0.460000  0.000000
 -0.010000  0.450000  0.000000
 -0.010000  0.440000  0.000000
 -0.010000  0.430000  0.000000
 -0.010000  0.420000  0.000000
 -0.010000  0.410000  0.000000
 -0.010000  0.400000  0.000000
 -0.010000  0.390000  0.000000
 -0.010000  0.380000  0.000000
 -0.010000  0.370000  0.000000
 -0.010000  0.360000  0.000000
 -0.010000  0.350000  0.000000
 -0.010000  0.340000  0.000000
 -0.010000  0.330000  0.000000
 -0.010000  0.320000  0.000000
 -0.010000  0.310000  0.000000
 -0.010000  0.300000  0.000000
 -0.010000  0.290000  0.000000
 -0.010000  0.280000  0.000000
 -0.010000  0.270000  0.000000
 -0.010000  0.260000  0.000000
 -0.010000  0.250000  0.000000
 -0.010000  0.240000  0.000000
 -0.010000  0.230000  0.000000
 -0.010000  0.220000  0.000000
 -0.010000  0.210000  0.000000
 -0.010000  0.200000  0.000000
 -0.010000  0.190000  0.000000
 -0.010000  0.180000  0.000000
 -0.010000  0.170000  0.000000
 -0.010000  0.160000  0.000000
 -0.010000  0.150000  0.000000
 -0.010000  0.140000  0.000000
 -0.010000  0.130000  0.000000
 -0.010000  0.120000  0.000000
 -0.010000  0.110000  0.000000
 -0.010000  0.100000  0.000000
 -0.010000  0.090000  0.000000
 -0.010000  0.080000  0.000000
 -0.010000  0.070000  0.000000
 -0.010000  0.060000  0.000000
 -0.010000  0.050000  0.000000
 -0.010000  0.040000  0.000000
 -0.010000  0.030000  0.000000
 -0.010000  0.020000  0.000000
 -0.010000  0.010000  0.000000
 -0.100000 -0.010000  0.000000
 -0.090000 -0.010000  0.000000
 -0.080000 -0.010000  0.000000
 -0.070000 -0.010000  0.000000
 -0.060000 -0.010000  0.000000
 -0.050000 -0.010000  0.000000
 -0.040000 -0.010000  0.000000
 -0.030000 -0.010000  0.000000