<?xml version="1.0" encoding="UTF-8"?>
<VTKFile type="UnstructuredGrid" version="1.0" byte_order="LittleEndian">
<UnstructuredGrid>
  <Piece NumberOfPoints="1554" NumberOfCells="1554">
      <PointData>
        <DataArray type="Int32" Name="Type" format="ascii">
 1 1 1 1 1 1 1 1 1 1
 1 1 1 1 1 1 1 1 1 1
 1 1 1 1 1 1 1 1 1 1
 1 1 1 1 1 1 1 1 1 1
 1 1 1 1 1 1 1 1 1 1
 1 1 1 1 1 1 1 1 1 1
 1 3 3 3 3 3 3 3 3 3
 3 3 3 3 3 3 3 3 3 3
 3 3 3 3 3 3 3 3 3 3
 3 3 3 3 3 3 3 3 3 3
 3 3 3 3 3 3 3 3 3 3
 3 3 3 3 3 3 3 3 3 3
 3 3 3 3 3 3 3 3 3 3
 1 1 1 1 1 1 1 1 1 1
 1 1 1 1 1 1 1 1 1 1
 1 1 1 1 1 1 1 1 1 1
 1 1 1 1 1 1 1 1 1 1
 1 1 1 1 1 1 1 1 1 1
 1 1 1 1 1 1 1 1 1 1
 1 2 2 2 2 2 2 2 2 2
 2 2 2 2 2 2 2 2 2 2
 2 2 2 2 2 2 2 2 2 2
 2 2 2 2 2 2 2 2 2 2
 2 2 2 2 2 2 2 2 2 2
 2 2 2 2 2 2 2 2 2 2
 2 2 2 2 2 2 2 2 2 2
 2 2 2 2 2 2 2 2 2 2
 2 2 2 2 2 2 2 2 2 2
 2 2 2 2 2 2 2 2 2 2
 2 2 2 2 2 2 2 2 2 2
 2 2 2 2 2 2 2 2 2 2
 2 2 2 2 2 2 2 2 2 2
 2 2 2 2 2 2 2 2 2 2
 2 2 2 2 2 2 2 2 2 2
 2 2 2 2 2 2 2 2 2 2
 2 2 2 2 2 2 2 2 2 2
 2 2 2 2 2 2 2 2 2 2
 2 2 2 2 2 2 2 2 2 2
 2 2 2 2 2 2 2 2 2 2
 2 2 2 2 2 2 2 2 2 2
 2 2 2 2 2 2 2 2 2 2
 2 2 2 2 2 2 2 2 2 2
 2 2 2 2 2 2 2 2 2 2
 2 2 2 2 2 2 2 2 2 2
 2 2 2 2 2 2 2 2 2 2
 2 2 2 2 2 2 2 2 2 2
 2 2 2 2 2 2 2 2 2 2
 2 2 2 2 2 2 2 2 2 2
 2 2 2 2 2 2 2 2 2 2
 2 2 2 2 2 2 2 2 2 2
 2 2 2 2 2 2 2 2 2 2
 2 2 2 2 2 2 2 2 2 2
 2 2 2 2 2 2 2 2 2 2
 2 2 2 2 2 2 2 2 2 2
 2 2 2 2 2 2 2 2 2 2
 2 2 2 2 2 2 2 2 2 2
 2 2 2 2 2 2 2 2 2 2
 2 2 2 2 2 2 2 2 2 2
 2 2 2 2 2 2 2 2 2 2
 2 2 2 2 2 2 2 2 2 2
 2 2 2 2 2 2 2 2 2 2
 2 2 2 2 2 2 2 2 2 2
 2 2 2 2 2 2 2 2 2 2
 2 2 2 2 2 2 2 2 2 2
 2 2 2 2 2 2 2 2 2 2
 2 2 2 2 2 2 2 2 2 2
 2 2 2 2 2 2 2 2 2 2
 2 2 2 2 2 2 2 2 2 2
 2 2 2 2 2 2 2 2 2 2
 2 2 2 2 2 2 2 2 2 2
 2 2 2 2 2 2 2 2 2 2
 2 2 2 2 2 2 2 2 2 2
 2 2 2 2 2 2 2 2 2 2
 2 2 2 2 2 2 2 2 2 2
 2 2 2 2 2 2 2 2 2 2
 2 2 2 2 2 2 2 2 2 2
 2 2 2 2 2 2 2 2 2 2
 2 2 2 2 2 2 2 2 2 2
 2 2 2 2 2 2 2 2 2 2
 0 0 0 0 0 0 0 0 0 0
 0 0 0 0 0 0 0 0 0 0
 0 0 0 0 0 0 0 0 0 0
 0 0 0 0 0 0 0 0 0 0
 0 0 0 0 0 0 0 0 0 0
 0 0 0 0 0 0 0 0 0 0
 0 0 0 0 0 0 0 0 0 0
 0 0 0 0 0 0 0 0 0 0
 0 0 0 0 0 0 0 0 0 0
 0 0 0 0 0 0 0 0 0 0
 0 0 0 0 0 0 0 0 0 0
 0 0 0 0 0 0 0 0 0 0
 0 0 0 0 0 0 0 0 0 0
 0 0 0 0 0 0 0 0 0 0
 0 0 0 0 0 0 0 0 0 0
 0 0 0 0 0 0 0 0 0 0
 0 0 0 0 0 0 0 0 0 0
 0 0 0 0 0 0 0 0 0 0
 0 0 0 0 0 0 0 0 0 0
 0 0 0 0 0 0 0 0 0 0
 0 0 0 0 0 0 0 0 0 0
 0 0 0 0 0 0 0 0 0 0
 0 0 0 0 0 0 0 0 0 0
 0 0 0 0 0 0 0 0 0 0
 0 0 0 0 0 0 0 0 0 0
 0 0 0 0 0 0 0 0 0 0
 0 0 0 0 0 0 0 0 0 0
 0 0 0 0 0 0 0 0 0 0
 0 0 0 0 0 0 0 0 0 0
 0 0 0 0 0 0 0 0 0 0
 0 0 0 0 0 0 0 0 0 0
 0 0 0 0 0 0 0 0 0 0
 0 0 0 0 0 0 0 0 0 0
 0 0 0 0 0 0 0 0 0 0
 0 0 0 0 0 0 0 0 0 0
 0 0 0 0 0 0 0 0 0 0
 0 0 0 0 0 0 0 0 0 0
 0 0 0 0 0 0 0 0 0 0
 0 0 0 0 0 0 0 0 0 0
 0 0 0 0 0 0 0 0 0 0
 0 0 0 0 0 0 0 0 0 0
 0 0 0 0 0 0 0 0 0 0
 0 0 0 0 0 0 0 0 0 0
 0 0 0 0 0 0 0 0 0 0
 0 0 0 0 0 0 0 0 0 0
 0 0 0 0 0 0 0 0 0 0
 0 0 0 0 0 0 0 0 0 0
 0 0 0 0 0 0 0 0 0 0
 0 0 0 0 0 0 0 0 0 0
 0 0 0 0 0 0 0 0 0 0
 0 0 0 0 0 0 0 0 0 0
 0 0 0 0 0 0 0 0 0 0
 0 0 0 0 0 0 0 0 0 0
 0 0 0 0 0 0 0 0 0 0
 0 0 0 0 0 0 0 0 0 0
 0 0 0 0 0 0 0 0 0 0
 0 0 0 0 0 0 0 0 0 0
 0 0 0 0 0 0 0 0 0 0
 0 0 0 0 0 0 0 0 0 0
 0 0 0 0 0 0 0 0 0 0
 0 0 0 0 0 0 0 0 0 0
 0 0 0 0 0 0 0 0 0 0
 0 0 0 0 0 0 0 0 0 0
 0 0 0 0 0 0 0 0 0 0
 0 0 0 0 0 0 0 0 0 0
 0 0 0 0 0 0 0 0 0 0
 0 0 0 0 0 0 0 0 0 0
 0 0 0 0 0 0 0 0 0 0
 0 0 0 0 0 0 0 0 0 0
 0 0 0 0 0 0 0 0 0 0
 0 0 0 0 0 0 0 0 0 0
 0 0 0 0 0 0 0 0 0 0
 0 0 0 0 0 0 0 0 0 0
 0 0 0 0 0 0 0 0 0 0
 0 0 0 0 0 0 0 0 0 0
 0 0 0 0 0 0 0 0 0 0
 0 0 0 0
        </DataArray>
      </PointData>
      <Points>
        <DataArray type="Float32" NumberOfComponents="3" format="ascii">
  0.000000  0.500000  0.000000
  0.000000  0.490000  0.000000
  0.000000  0.480000  0.000000
  0.000000  0.470000  0.000000
  0.000000  0.460000  0.000000
  0.000000  0.450000  0.000000
  0.000000  0.440000  0.000000
  0.000000  0.430000  0.000000
  0.000000  0.420000  0.000000
  0.000000  0.410000  0.000000
  0.000000  0.400000  0.000000
  0.000000  0.390000  0.000000
  0.000000  0.380000  0.000000
  0.000000  0.370000  0.000000
  0.000000  0.360000  0.000000
  0.000000  0.350000  0.000000
  0.000000  0.340000  0.000000
  0.000000  0.330000  0.000000
  0.000000  0.320000  0.000000
  0.000000  0.310000  0.000000
  0.000000  0.300000  0.000000
  0.000000  0.290000  0.000000
  0.000000  0.280000  0.000000
  0.000000  0.270000  0.000000
  0.000000  0.260000  0.000000
  0.000000  0.250000  0.000000
  0.000000  0.240000  0.000000
  0.000000  0.230000  0.000000
  0.000000  0.220000  0.000000
  0.000000  0.210000  0.000000
  0.000000  0.200000  0.000000
  0.000000  0.190000  0.000000
  0.000000  0.180000  0.000000
  0.000000  0.170000  0.000000
  0.000000  0.160000  0.000000
  0.000000  0.150000  0.000000
  0.000000  0.140000  0.000000
  0.000000  0.130000  0.000000
  0.000000  0.120000  0.000000
  0.000000  0.110000  0.000000
  0.000000  0.100000  0.000000
  0.000000  0.090000  0.000000
  0.000000  0.080000  0.000000
  0.000000  0.070000  0.000000
  0.000000  0.060000  0.000000
  0.000000  0.050000  0.000000
  0.000000  0.040000  0.000000
  0.000000  0.030000  0.000000
  0.000000  0.020000  0.000000
  0.000000  0.010000  0.000000
 -0.100000  0.000000  0.000000
 -0.090000  0.000000  0.000000
 -0.080000  0.000000  0.000000
 -0.070000  0.000000  0.000000
 -0.060000  0.000000  0.000000
 -0.050000  0.000000  0.000000
 -0.040000  0.000000  0.000000
 -0.030000  0.000000  0.000000
 -0.020000  0.000000  0.000000
 -0.010000  0.000000  0.000000
 -0.000000  0.000000  0.000000
  0.010000  0.000000  0.000000
  0.020000  0.000000  0.000000
  0.030000  0.000000  0.000000
  0.040000  0.000000  0.000000
  0.050000  0.000000  0.000000
  0.060000  0.000000  0.000000
  0.070000  0.000000  0.000000
  0.080000  0.000000  0.000000
  0.090000  0.000000  0.000000
  0.100000  0.000000  0.000000
  0.110000  0.000000  0.000000
  0.120000  0.000000  0.000000
  0.130000  0.000000  0.000000
  0.140000  0.000000  0.000000
  0.150000  0.000000  0.000000
  0.160000  0.000000  0.000000
  0.170000  0.000000  0.000000
  0.180000  0.000000  0.000000
  0.190000  0.000000  0.000000
  0.200000  0.000000  0.000000
  0.210000  0.000000  0.000000
  0.220000  0.000000  0.000000
  0.230000  0.000000  0.000000
  0.240000  0.000000  0.000000
  0.250000  0.000000  0.000000
  0.260000  0.000000  0.000000
  0.270000  0.000000  0.000000
  0.280000  0.000000  0.000000
  0.290000  0.000000  0.000000
  0.300000  0.000000  0.000000
  0.310000  0.000000  0.000000
  0.320000  0.000000  0.000000
  0.330000  0.000000  0.000000
  0.340000  0.000000  0.000000
  0.350000  0.000000  0.000000
  0.360000  0.000000  0.000000
  0.370000  0.000000  0.000000
  0.380000  0.000000  0.000000
  0.390000  0.000000  0.000000
  0.400000  0.000000  0.000000
  0.410000  0.000000  0.000000
  0.420000  0.000000  0.000000
  0.430000  0.000000  0.000000
  0.440000  0.000000  0.000000
  0.450000  0.000000  0.000000
  0.460000  0.000000  0.000000
  0.470000  0.000000  0.000000
  0.480000  0.000000  0.000000
  0.490000  0.000000  0.000000
  0.500000  0.000000  0.000000
  0.510000  0.000000  0.000000
  0.520000  0.000000  0.000000
  0.530000  0.000000  0.000000
  0.540000  0.000000  0.000000
  0.550000  0.000000  0.000000
  0.560000  0.000000  0.000000
  0.570000  0.000000  0.000000
  0.580000  0.000000  0.000000
  0.590000  0.000000  0.000000
  0.600000  0.000000  0.000000
  0.610000  0.000000  0.000000
  0.620000  0.000000  0.000000
  0.630000  0.000000  0.000000
  0.640000  0.000000  0.000000
  0.650000  0.000000  0.000000
  0.660000  0.000000  0.000000
  0.670000  0.000000  0.000000
  0.680000  0.000000  0.000000
  0.690000  0.000000  0.000000
  0.700000  0.000000  0.000000
  0.710000  0.000000  0.000000
  0.720000  0.000000  0.000000
  0.730000  0.000000  0.000000
  0.740000  0.000000  0.000000
  0.750000  0.000000  0.000000
  0.760000  0.000000  0.000000
  0.770000  0.000000  0.000000
  0.780000  0.000000  0.000000
  0.790000  0.000000  0.000000
  0.800000  0.000000  0.000000
  0.700000  0.010000  0.000000
  0.700000  0.020000  0.000000
  0.700000  0.030000  0.000000
  0.700000  0.040000  0.000000
  0.700000  0.050000  0.000000
  0.700000  0.060000  0.000000
  0.700000  0.070000  0.000000
  0.700000  0.080000  0.000000
  0.700000  0.090000  0.000000
  0.700000  0.100000  0.000000
  0.700000  0.110000  0.000000
  0.700000  0.120000  0.000000
  0.700000  0.130000  0.000000
  0.700000  0.140000  0.000000
  0.700000  0.150000  0.000000
  0.700000  0.160000  0.000000
  0.700000  0.170000  0.000000
  0.700000  0.180000  0.000000
  0.700000  0.190000  0.000000
  0.700000  0.200000  0.000000
  0.700000  0.210000  0.000000
  0.700000  0.220000  0.000000
  0.700000  0.230000  0.000000
  0.700000  0.240000  0.000000
  0.700000  0.250000  0.000000
  0.700000  0.260000  0.000000
  0.700000  0.270000  0.000000
  0.700000  0.280000  0.000000
  0.700000  0.290000  0.000000
  0.700000  0.300000  0.000000
  0.700000  0.310000  0.000000
  0.700000  0.320000  0.000000
  0.700000  0.330000  0.000000
  0.700000  0.340000  0.000000
  0.700000  0.350000  0.000000
  0.700000  0.360000  0.000000
  0.700000  0.370000  0.000000
  0.700000  0.380000  0.000000
  0.700000  0.390000  0.000000
  0.700000  0.400000  0.000000
  0.700000  0.410000  0.000000
  0.700000  0.420000  0.000000
  0.700000  0.430000  0.000000
  0.700000  0.440000  0.000000
  0.700000  0.450000  0.000000
  0.700000  0.460000  0.000000
  0.700000  0.470000  0.000000
  0.700000  0.480000  0.000000
  0.700000  0.490000  0.000000
  0.700000  0.500000  0.000000
  0.020190  0.010139  0.000000
  0.020738  0.020470  0.000000
  0.035830  0.014463  0.000000
  0.010285  0.010060  0.000000
  0.035084  0.022726  0.000000
  0.010086  0.019164  0.000000
  0.039680  0.030378  0.000000
  0.046041  0.017657  0.000000
  0.066256  0.025872  0.000000
  0.044889  0.033522  0.000000
  0.053015  0.036881  0.000000
  0.008715  0.030266  0.000000
  0.012879  0.041252  0.000000
  0.010167  0.045767  0.000000
  0.009951  0.057425  0.000000
  0.023644  0.052860  0.000000
  0.040321  0.058600  0.000000
  0.012683  0.061753  0.000000
  0.028944  0.076913  0.000000
  0.008930  0.073734  0.000000
  0.016991  0.072602  0.000000
  0.011155  0.083964  0.000000
  0.009295  0.093013  0.000000
  0.016666  0.103410  0.000000
  0.009484  0.104006  0.000000
  0.023750  0.108966  0.000000
  0.009555  0.117939  0.000000
  0.020662  0.120466  0.000000
  0.017272  0.118404  0.000000
  0.030733  0.120097  0.000000
  0.045417  0.008178  0.000000
  0.029564  0.009766  0.000000
  0.058213  0.009353  0.000000
  0.054106  0.019713  0.000000
  0.072146  0.010051  0.000000
  0.077736  0.020023  0.000000
  0.093911  0.013778  0.000000
  0.065448  0.013471  0.000000
  0.063065  0.040199  0.000000
  0.055434  0.026482  0.000000
  0.044530  0.048803  0.000000
  0.024632  0.027221  0.000000
  0.063936  0.043759  0.000000
  0.030875  0.037054  0.000000
  0.054899  0.057205  0.000000
  0.023700  0.044537  0.000000
  0.018006  0.030993  0.000000
  0.034891  0.054788  0.000000
  0.051734  0.059586  0.000000
  0.024858  0.061086  0.000000
  0.052471  0.074086  0.000000
  0.039031  0.069860  0.000000
  0.021760  0.081747  0.000000
  0.037221  0.082947  0.000000
  0.021779  0.091457  0.000000
  0.035915  0.099418  0.000000
  0.023877  0.095121  0.000000
  0.036928  0.098808  0.000000
  0.033527  0.110392  0.000000
  0.044209  0.113896  0.000000
  0.108284  0.011744  0.000000
  0.083508  0.008442  0.000000
  0.099197  0.009662  0.000000
  0.084505  0.019184  0.000000
  0.106178  0.022542  0.000000
  0.126762  0.013634  0.000000
  0.141821  0.020389  0.000000
  0.110903  0.036916  0.000000
  0.091837  0.044510  0.000000
  0.069678  0.028044  0.000000
  0.095527  0.032373  0.000000
  0.094288  0.024513  0.000000
  0.071577  0.050270  0.000000
  0.076686  0.067899  0.000000
  0.089715  0.059511  0.000000
  0.032565  0.042975  0.000000
  0.064415  0.059416  0.000000
  0.050018  0.045852  0.000000
  0.044535  0.072290  0.000000
  0.027444  0.067805  0.000000
  0.063638  0.068529  0.000000
  0.061420  0.081031  0.000000
  0.051706  0.083901  0.000000
  0.040359  0.085061  0.000000
  0.057386  0.092864  0.000000
  0.048087  0.095459  0.000000
  0.051569  0.101583  0.000000
  0.058814  0.109196  0.000000
  0.053186  0.112651  0.000000
  0.043524  0.119291  0.000000
  0.147523  0.008798  0.000000
  0.117753  0.008839  0.000000
  0.148553  0.015065  0.000000
  0.116203  0.019321  0.000000
  0.138690  0.038752  0.000000
  0.133033  0.008911  0.000000
  0.138800  0.031610  0.000000
  0.134995  0.020388  0.000000
  0.122118  0.040769  0.000000
  0.083963  0.030341  0.000000
  0.129936  0.039584  0.000000
  0.081589  0.039295  0.000000
  0.112368  0.044611  0.000000
  0.076140  0.038009  0.000000
  0.073345  0.056276  0.000000
  0.107179  0.028612  0.000000
  0.084389  0.050380  0.000000
  0.097417  0.052367  0.000000
  0.083787  0.062627  0.000000
  0.080416  0.076128  0.000000
  0.101419  0.070850  0.000000
  0.068134  0.073340  0.000000
  0.065051  0.088386  0.000000
  0.088501  0.078006  0.000000
  0.075944  0.087239  0.000000
  0.068466  0.100212  0.000000
  0.078609  0.102793  0.000000
  0.070639  0.104363  0.000000
  0.067689  0.118019  0.000000
  0.075761  0.114959  0.000000
  0.176213  0.008643  0.000000
  0.161221  0.008954  0.000000
  0.174103  0.014715  0.000000
  0.161890  0.016073  0.000000
  0.198871  0.010448  0.000000
  0.157040  0.025616  0.000000
  0.148874  0.030165  0.000000
  0.165984  0.023658  0.000000
  0.124045  0.025440  0.000000
  0.166599  0.035691  0.000000
  0.123249  0.029976  0.000000
  0.154127  0.035870  0.000000
  0.146350  0.046254  0.000000
  0.132482  0.052104  0.000000
  0.141223  0.064878  0.000000
  0.098982  0.039708  0.000000
  0.127161  0.051555  0.000000
  0.109209  0.049407  0.000000
  0.117599  0.072797  0.000000
  0.102038  0.058385  0.000000
  0.093659  0.072005  0.000000
  0.106073  0.066906  0.000000
  0.097518  0.084584  0.000000
  0.077469  0.086823  0.000000
  0.099116  0.088086  0.000000
  0.088186  0.096893  0.000000
  0.091599  0.093808  0.000000
  0.094473  0.108486  0.000000
  0.088663  0.107440  0.000000
  0.085292  0.117998  0.000000
  0.207631  0.012160  0.000000
  0.189727  0.009893  0.000000
  0.228163  0.021907  0.000000
  0.202727  0.022028  0.000000
  0.247331  0.011550  0.000000
  0.209508  0.030482  0.000000
  0.225340  0.011422  0.000000
  0.186207  0.017653  0.000000
  0.194855  0.022842  0.000000
  0.218238  0.029660  0.000000
  0.188461  0.031525  0.000000
  0.198108  0.034637  0.000000
  0.180560  0.024522  0.000000
  0.156555  0.044672  0.000000
  0.145689  0.051937  0.000000
  0.152144  0.057817  0.000000
  0.118398  0.059004  0.000000
  0.165851  0.056166  0.000000
  0.116837  0.061231  0.000000
  0.135371  0.061060  0.000000
  0.127816  0.068025  0.000000
  0.132747  0.074391  0.000000
  0.111542  0.079704  0.000000
  0.121688  0.080647  0.000000
  0.119758  0.093111  0.000000
  0.112247  0.086342  0.000000
  0.110687  0.098842  0.000000
  0.108977  0.101703  0.000000
  0.102894  0.107012  0.000000
  0.107861  0.114812  0.000000
  0.263917  0.010530  0.000000
  0.219037  0.012616  0.000000
  0.235756  0.010853  0.000000
  0.213077  0.018981  0.000000
  0.293683  0.025497  0.000000
  0.253555  0.012889  0.000000
  0.269222  0.015255  0.000000
  0.239905  0.017370  0.000000
  0.234699  0.025286  0.000000
  0.233620  0.033539  0.000000
  0.220726  0.034282  0.000000
  0.230808  0.043621  0.000000
  0.200328  0.039353  0.000000
  0.173887  0.029770  0.000000
  0.180476  0.038599  0.000000
  0.165238  0.044130  0.000000
  0.169840  0.052581  0.000000
  0.183931  0.054331  0.000000
  0.159549  0.063926  0.000000
  0.151957  0.067541  0.000000
  0.166246  0.070358  0.000000
  0.145750  0.076708  0.000000
  0.136459  0.080491  0.000000
  0.144647  0.087875  0.000000
  0.129565  0.090041  0.000000
  0.140867  0.092760  0.000000
  0.131494  0.102252  0.000000
  0.127091  0.097483  0.000000
  0.125079  0.113583  0.000000
  0.118560  0.112708  0.000000
  0.283365  0.016920  0.000000
  0.276389  0.011942  0.000000
  0.330831  0.025078  0.000000
  0.287991  0.010589  0.000000
  0.341042  0.024619  0.000000
  0.308393  0.012393  0.000000
  0.308757  0.027871  0.000000
  0.285701  0.026594  0.000000
  0.298401  0.011126  0.000000
  0.274029  0.026077  0.000000
  0.258687  0.022584  0.000000
  0.251360  0.025383  0.000000
  0.250874  0.031073  0.000000
  0.212245  0.044403  0.000000
  0.222608  0.054710  0.000000
  0.190568  0.044267  0.000000
  0.178644  0.043778  0.000000
  0.207414  0.049418  0.000000
  0.190140  0.055284  0.000000
  0.201120  0.052384  0.000000
  0.177028  0.068347  0.000000
  0.177911  0.061152  0.000000
  0.179176  0.075010  0.000000
  0.156098  0.077337  0.000000
  0.165451  0.080035  0.000000
  0.160757  0.087261  0.000000
  0.157739  0.090482  0.000000
  0.148313  0.099002  0.000000
  0.147302  0.110156  0.000000
  0.147438  0.104853  0.000000
  0.344587  0.009745  0.000000
  0.327650  0.012281  0.000000
  0.354121  0.013129  0.000000
  0.331943  0.013721  0.000000
  0.366798  0.018843  0.000000
  0.343034  0.017682  0.000000
  0.357246  0.029598  0.000000
  0.315284  0.019528  0.000000
  0.317915  0.010846  0.000000
  0.314671  0.031972  0.000000
  0.280489  0.036717  0.000000
  0.284359  0.038912  0.000000
  0.268434  0.047914  0.000000
  0.267458  0.028986  0.000000
  0.257390  0.038292  0.000000
  0.220578  0.044567  0.000000
  0.240210  0.038369  0.000000
  0.234916  0.051662  0.000000
  0.238067  0.059391  0.000000
  0.218818  0.060149  0.000000
  0.207106  0.064111  0.000000
  0.197805  0.061619  0.000000
  0.197402  0.071177  0.000000
  0.189256  0.070542  0.000000
  0.193452  0.079605  0.000000
  0.179910  0.083327  0.000000
  0.176299  0.090178  0.000000
  0.169217  0.097441  0.000000
  0.169420  0.101692  0.000000
  0.161387  0.103265  0.000000
  0.417906  0.010398  0.000000
  0.362577  0.010504  0.000000
  0.424491  0.013838  0.000000
  0.390980  0.016209  0.000000
  0.436374  0.028262  0.000000
  0.395914  0.011213  0.000000
  0.426659  0.021933  0.000000
  0.374266  0.031498  0.000000
  0.345481  0.034038  0.000000
  0.322547  0.026773  0.000000
  0.329379  0.035599  0.000000
  0.318207  0.042650  0.000000
  0.269751  0.036705  0.000000
  0.300368  0.017452  0.000000
  0.300425  0.031604  0.000000
  0.295710  0.038221  0.000000
  0.263689  0.052975  0.000000
  0.254937  0.042834  0.000000
  0.255144  0.058932  0.000000
  0.243780  0.045111  0.000000
  0.249618  0.053257  0.000000
  0.227281  0.062911  0.000000
  0.237478  0.066426  0.000000
  0.211449  0.069620  0.000000
  0.218546  0.081965  0.000000
  0.207870  0.081056  0.000000
  0.203607  0.084399  0.000000
  0.194534  0.088628  0.000000
  0.184659  0.090524  0.000000
  0.186490  0.102026  0.000000
  0.455007  0.014920  0.000000
  0.418079  0.026566  0.000000
  0.494764  0.010980  0.000000
  0.441895  0.010417  0.000000
  0.480658  0.012893  0.000000
  0.433389  0.012572  0.000000
  0.459130  0.010321  0.000000
  0.443283  0.016746  0.000000
  0.409723  0.029060  0.000000
  0.385575  0.020983  0.000000
  0.405307  0.013552  0.000000
  0.355983  0.022528  0.000000
  0.361736  0.032132  0.000000
  0.364390  0.048995  0.000000
  0.353160  0.046319  0.000000
  0.317250  0.043641  0.000000
  0.303335  0.043962  0.000000
  0.294013  0.047882  0.000000
  0.292689  0.054770  0.000000
  0.281853  0.053956  0.000000
  0.277732  0.066419  0.000000
  0.264251  0.064104  0.000000
  0.249787  0.065593  0.000000
  0.250838  0.080046  0.000000
  0.218251  0.072444  0.000000
  0.231715  0.074865  0.000000
  0.226941  0.090891  0.000000
  0.207754  0.096461  0.000000
  0.209994  0.099378  0.000000
  0.196393  0.098305  0.000000
  0.553738  0.011057  0.000000
  0.515122  0.011177  0.000000
  0.555853  0.016428  0.000000
  0.532450  0.014538  0.000000
  0.541423  0.011003  0.000000
  0.513022  0.012623  0.000000
  0.496027  0.012263  0.000000
  0.465434  0.016450  0.000000
  0.473780  0.010435  0.000000
  0.455755  0.029321  0.000000
  0.442179  0.032607  0.000000
  0.409722  0.013409  0.000000
  0.402555  0.027590  0.000000
  0.389168  0.034559  0.000000
  0.376264  0.022185  0.000000
  0.365856  0.041844  0.000000
  0.350095  0.050757  0.000000
  0.341959  0.036104  0.000000
  0.345950  0.054249  0.000000
  0.331033  0.050336  0.000000
  0.307540  0.051888  0.000000
  0.318482  0.057711  0.000000
  0.274759  0.050204  0.000000
  0.286424  0.060217  0.000000
  0.269821  0.067649  0.000000
  0.253232  0.073004  0.000000
  0.241736  0.092403  0.000000
  0.242572  0.077156  0.000000
  0.229344  0.084679  0.000000
  0.217994  0.093123  0.000000
  0.642672  0.012463  0.000000
  0.607757  0.024785  0.000000
  0.611024  0.011237  0.000000
  0.588052  0.012156  0.000000
  0.601619  0.016184  0.000000
  0.564923  0.011409  0.000000
  0.536960  0.025294  0.000000
  0.544782  0.020273  0.000000
  0.527566  0.011677  0.000000
  0.499332  0.022702  0.000000
  0.479301  0.020368  0.000000
  0.462268  0.025567  0.000000
  0.447250  0.025216  0.000000
  0.460499  0.041685  0.000000
  0.410119  0.036537  0.000000
  0.414642  0.046479  0.000000
  0.394673  0.029295  0.000000
  0.381902  0.011179  0.000000
  0.372791  0.011497  0.000000
  0.403596  0.045186  0.000000
  0.374676  0.039471  0.000000
  0.356799  0.063814  0.000000
  0.336526  0.044265  0.000000
  0.306905  0.058519  0.000000
  0.301930  0.066346  0.000000
  0.284406  0.071048  0.000000
  0.271441  0.078658  0.000000
  0.262437  0.078479  0.000000
  0.255119  0.091432  0.000000
  0.242156  0.091979  0.000000
  0.670449  0.021979  0.000000
  0.641582  0.023384  0.000000
  0.650765  0.012808  0.000000
  0.634870  0.011793  0.000000
  0.648075  0.058464  0.000000
  0.615954  0.012216  0.000000
  0.590928  0.025386  0.000000
  0.601931  0.030461  0.000000
  0.561334  0.026885  0.000000
  0.592930  0.031710  0.000000
  0.574868  0.024893  0.000000
  0.530914  0.027042  0.000000
  0.507052  0.023408  0.000000
  0.526552  0.044458  0.000000
  0.492013  0.023749  0.000000
  0.476434  0.026013  0.000000
  0.480097  0.047837  0.000000
  0.437056  0.041658  0.000000
  0.445214  0.043302  0.000000
  0.423300  0.032941  0.000000
  0.397425  0.044678  0.000000
  0.383126  0.036837  0.000000
  0.383333  0.053777  0.000000
  0.346121  0.067670  0.000000
  0.336251  0.059834  0.000000
  0.321866  0.069775  0.000000
  0.298725  0.069417  0.000000
  0.290083  0.082784  0.000000
  0.274380  0.086047  0.000000
  0.264679  0.087220  0.000000
  0.679663  0.018316  0.000000
  0.684195  0.053003  0.000000
  0.676337  0.037434  0.000000
  0.676687  0.030064  0.000000
  0.669595  0.050644  0.000000
  0.658880  0.013105  0.000000
  0.627389  0.011194  0.000000
  0.637708  0.044474  0.000000
  0.609604  0.034802  0.000000
  0.620992  0.020860  0.000000
  0.617723  0.036965  0.000000
  0.581396  0.011278  0.000000
  0.597010  0.013717  0.000000
  0.581510  0.021424  0.000000
  0.520055  0.021474  0.000000
  0.543412  0.037202  0.000000
  0.522060  0.032341  0.000000
  0.491001  0.033018  0.000000
  0.490720  0.042178  0.000000
  0.470224  0.032778  0.000000
  0.459182  0.038744  0.000000
  0.428101  0.038366  0.000000
  0.410570  0.061393  0.000000
  0.393756  0.048009  0.000000
  0.365642  0.055786  0.000000
  0.368743  0.063384  0.000000
  0.328312  0.055919  0.000000
  0.317915  0.064741  0.000000
  0.301802  0.079689  0.000000
  0.285346  0.078927  0.000000
  0.689732  0.030678  0.000000
  0.686908  0.012333  0.000000
  0.691480  0.068360  0.000000
  0.686792  0.120194  0.000000
  0.675721  0.010061  0.000000
  0.665374  0.010904  0.000000
  0.672145  0.060645  0.000000
  0.668459  0.066891  0.000000
  0.655452  0.021896  0.000000
  0.663822  0.027861  0.000000
  0.661712  0.048160  0.000000
  0.649653  0.032485  0.000000
  0.634135  0.035385  0.000000
  0.651507  0.044069  0.000000
  0.622729  0.045269  0.000000
  0.590653  0.044137  0.000000
  0.579706  0.040026  0.000000
  0.570860  0.014232  0.000000
  0.550768  0.030368  0.000000
  0.523893  0.047682  0.000000
  0.517001  0.031295  0.000000
  0.482274  0.035668  0.000000
  0.455298  0.051231  0.000000
  0.456322  0.065208  0.000000
  0.424608  0.047233  0.000000
  0.399584  0.060707  0.000000
  0.379701  0.051102  0.000000
  0.355180  0.076430  0.000000
  0.338332  0.071787  0.000000
  0.306163  0.076860  0.000000
  0.682128  0.112239  0.000000
  0.666085  0.165228  0.000000
  0.690026  0.047564  0.000000
  0.686327  0.078301  0.000000
  0.633701  0.199119  0.000000
  0.684761  0.071590  0.000000
  0.688088  0.095450  0.000000
  0.673720  0.111514  0.000000
  0.688751  0.155939  0.000000
  0.675528  0.088651  0.000000
  0.665504  0.035421  0.000000
  0.676403  0.045990  0.000000
  0.662032  0.068224  0.000000
  0.652338  0.068856  0.000000
  0.654749  0.036550  0.000000
  0.659754  0.056685  0.000000
  0.629834  0.041638  0.000000
  0.619422  0.029124  0.000000
  0.599914  0.045739  0.000000
  0.577183  0.033287  0.000000
  0.547934  0.047587  0.000000
  0.535080  0.038647  0.000000
  0.506887  0.035601  0.000000
  0.505773  0.054465  0.000000
  0.451992  0.051896  0.000000
  0.438384  0.058222  0.000000
  0.417630  0.050887  0.000000
  0.396577  0.065252  0.000000
  0.359507  0.068483  0.000000
  0.331043  0.074700  0.000000
  0.688251  0.090022  0.000000
  0.631376  0.258591  0.000000
  0.688051  0.146360  0.000000
  0.684566  0.057343  0.000000
  0.688266  0.137573  0.000000
  0.687672  0.034464  0.000000
  0.689363  0.017470  0.000000
  0.689607  0.120114  0.000000
  0.666309  0.140247  0.000000
  0.683284  0.171536  0.000000
  0.664707  0.142901  0.000000
  0.671815  0.081914  0.000000
  0.665248  0.118105  0.000000
  0.668082  0.129188  0.000000
  0.676568  0.074571  0.000000
  0.665701  0.089763  0.000000
  0.661604  0.082768  0.000000
  0.652944  0.078952  0.000000
  0.639990  0.029376  0.000000
  0.633000  0.055375  0.000000
  0.615006  0.056929  0.000000
  0.607424  0.054455  0.000000
  0.559832  0.046403  0.000000
  0.561839  0.027927  0.000000
  0.517847  0.049412  0.000000
  0.500619  0.038881  0.000000
  0.469458  0.054122  0.000000
  0.436817  0.051664  0.000000
  0.390483  0.062340  0.000000
  0.376682  0.066204  0.000000
  0.626996  0.251005  0.000000
  0.674662  0.217125  0.000000
  0.689037  0.104689  0.000000
  0.602505  0.353965  0.000000
  0.676933  0.306687  0.000000
  0.614621  0.271177  0.000000
  0.666310  0.311110  0.000000
  0.669375  0.173542  0.000000
  0.670409  0.224211  0.000000
  0.661462  0.259247  0.000000
  0.662090  0.199269  0.000000
  0.681340  0.178730  0.000000
  0.685044  0.197308  0.000000
  0.651246  0.167936  0.000000
  0.667545  0.099510  0.000000
  0.679990  0.152575  0.000000
  0.679667  0.100345  0.000000
  0.672817  0.153713  0.000000
  0.653846  0.103579  0.000000
  0.648720  0.100394  0.000000
  0.638403  0.065470  0.000000
  0.629532  0.022289  0.000000
  0.649467  0.052265  0.000000
  0.567682  0.050701  0.000000
  0.572609  0.040969  0.000000
  0.555226  0.038939  0.000000
  0.508425  0.044792  0.000000
  0.475523  0.042034  0.000000
  0.428161  0.064560  0.000000
  0.420295  0.061296  0.000000
  0.557481  0.391222  0.000000
  0.641221  0.235734  0.000000
  0.534692  0.362428  0.000000
  0.515669  0.415111  0.000000
  0.596564  0.391833  0.000000
  0.645613  0.275802  0.000000
  0.669505  0.297032  0.000000
  0.677542  0.348256  0.000000
  0.674058  0.269440  0.000000
  0.655114  0.374025  0.000000
  0.629964  0.252101  0.000000
  0.664438  0.240969  0.000000
  0.680246  0.250202  0.000000
  0.680484  0.220660  0.000000
  0.657323  0.179672  0.000000
  0.687289  0.197195  0.000000
  0.653168  0.143118  0.000000
  0.651482  0.127336  0.000000
  0.665262  0.123620  0.000000
  0.667149  0.108770  0.000000
  0.652300  0.092981  0.000000
  0.651266  0.077127  0.000000
  0.635340  0.056256  0.000000
  0.612582  0.048594  0.000000
  0.588870  0.045617  0.000000
  0.537649  0.051718  0.000000
  0.491355  0.056511  0.000000
  0.494280  0.051478  0.000000
  0.444676  0.061443  0.000000
 -0.010000  0.500000  0.000000
 -0.010000  0.490000  0.000000
 -0.010000  0.480000  0.000000
 -0.010000  0.470000  0.000000
 -0.010000  0.460000  0.000000
 -0.010000  0.450000  0.000000
 -0.010000  0.440000  0.000000
 -0.010000  0.430000  0.000000
 -0.010000  0.420000  0.000000
 -0.010000  0.410000  0.000000
 -0.010000  0.400000  0.000000
 -0.010000  0.390000  0.000000
 -0.010000  0.380000  0.000000
 -0.010000  0.370000  0.000000
 -0.010000  0.360000  0.000000
 -0.010000  0.350000  0.000000
 -0.010000  0.340000  0.000000
 -0.010000  0.330000  0.000000
 -0.010000  0.320000  0.000000
 -0.010000  0.310000  0.000000
 -0.010000  0.300000  0.000000
 -0.010000  0.290000  0.000000
 -0.010000  0.280000  0.000000
 -0.010000  0.270000  0.000000
 -0.010000  0.260000  0.000000
 -0.010000  0.250000  0.000000
 -0.010000  0.240000  0.000000
 -0.010000  0.230000  0.000000
 -0.010000  0.220000  0.000000
 -0.010000  0.210000  0.000000
 -0.010000  0.200000  0.000000
 -0.010000  0.190000  0.000000
 -0.010000  0.180000  0.000000
 -0.010000  0.170000  0.000000
 -0.010000  0.160000  0.000000
 -0.010000  0.150000  0.000000
 -0.010000  0.140000  0.000000
 -0.010000  0.130000  0.000000
 -0.010000  0.120000  0.000000
 -0.010000  0.110000  0.000000
 -0.010000  0.100000  0.000000
 -0.010000  0.090000  0.000000
 -0.010000  0.080000  0.000000
 -0.010000  0.070000  0.000000
 -0.010000  0.060000  0.000000
 -0.010000  0.050000  0.000000
 -0.010000  0.040000  0.000000
 -0.010000  0.030000  0.000000
 -0.010000  0.020000  0.000000
 -0.010000  0.010000  0.000000
 -0.100000 -0.010000  0.000000
 -0.090000 -0.010000  0.000000
 -0.080000 -0.010000  0.000000
 -0.070000 -0.010000  0.000000
 -0.060000 -0.010000  0.000000
 -0.050000 -0.010000  0.000000
 -0.040000 -0.010000  0.000000
 -0.030000 -0.010000  0.000000
 -0.020000 -0.010000  0.000000