<?xml version="1.0" encoding="UTF-8"?>
<VTKFile type="UnstructuredGrid" version="1.0" byte_order="LittleEndian">
<UnstructuredGrid>
  <Piece NumberOfPoints="1555" NumberOfCells="1555">
      <PointData>
        <DataArray type="Int32" Name="Type" format="ascii">
 1 1 1 1 1 1 1 1 1 1
 1 1 1 1 1 1 1 1 1 1
 1 1 1 1 1 1 1 1 1 1
 1 1 1 1 1 1 1 1 1 1
 1 1 1 1 1 1 1 1 1 1
 1 1 1 1 1 1 1 1 1 1
 1 3 3 3 3 3 3 3 3 3
 3 3 3 3 3 3 3 3 3 3
 3 3 3 3 3 3 3 3 3 3
 3 3 3 3 3 3 3 3 3 3
 3 3 3 3 3 3 3 3 3 3
 3 3 3 3 3 3 3 3 3 3
 3 3 3 3 3 3 3 3 3 3
 1 1 1 1 1 1 1 1 1 1
 1 1 1 1 1 1 1 1 1 1
 1 1 1 1 1 1 1 1 1 1
 1 1 1 1 1 1 1 1 1 1
 1 1 1 1 1 1 1 1 1 1
 1 1 1 1 1 1 1 1 1 1
 1 2 2 2 2 2 2 2 2 2
 2 2 2 2 2 2 2 2 2 2
 2 2 2 2 2 2 2 2 2 2
 2 2 2 2 2 2 2 2 2 2
 2 2 2 2 2 2 2 2 2 2
 2 2 2 2 2 2 2 2 2 2
 2 2 2 2 2 2 2 2 2 2
 2 2 2 2 2 2 2 2 2 2
 2 2 2 2 2 2 2 2 2 2
 2 2 2 2 2 2 2 2 2 2
 2 2 2 2 2 2 2 2 2 2
 2 2 2 2 2 2 2 2 2 2
 2 2 2 2 2 2 2 2 2 2
 2 2 2 2 2 2 2 2 2 2
 2 2 2 2 2 2 2 2 2 2
 2 2 2 2 2 2 2 2 2 2
 2 2 2 2 2 2 2 2 2 2
 2 2 2 2 2 2 2 2 2 2
 2 2 2 2 2 2 2 2 2 2
 2 2 2 2 2 2 2 2 2 2
 2 2 2 2 2 2 2 2 2 2
 2 2 2 2 2 2 2 2 2 2
 2 2 2 2 2 2 2 2 2 2
 2 2 2 2 2 2 2 2 2 2
 2 2 2 2 2 2 2 2 2 2
 2 2 2 2 2 2 2 2 2 2
 2 2 2 2 2 2 2 2 2 2
 2 2 2 2 2 2 2 2 2 2
 2 2 2 2 2 2 2 2 2 2
 2 2 2 2 2 2 2 2 2 2
 2 2 2 2 2 2 2 2 2 2
 2 2 2 2 2 2 2 2 2 2
 2 2 2 2 2 2 2 2 2 2
 2 2 2 2 2 2 2 2 2 2
 2 2 2 2 2 2 2 2 2 2
 2 2 2 2 2 2 2 2 2 2
 2 2 2 2 2 2 2 2 2 2
 2 2 2 2 2 2 2 2 2 2
 2 2 2 2 2 2 2 2 2 2
 2 2 2 2 2 2 2 2 2 2
 2 2 2 2 2 2 2 2 2 2
 2 2 2 2 2 2 2 2 2 2
 2 2 2 2 2 2 2 2 2 2
 2 2 2 2 2 2 2 2 2 2
 2 2 2 2 2 2 2 2 2 2
 2 2 2 2 2 2 2 2 2 2
 2 2 2 2 2 2 2 2 2 2
 2 2 2 2 2 2 2 2 2 2
 2 2 2 2 2 2 2 2 2 2
 2 2 2 2 2 2 2 2 2 2
 2 2 2 2 2 2 2 2 2 2
 2 2 2 2 2 2 2 2 2 2
 2 2 2 2 2 2 2 2 2 2
 2 2 2 2 2 2 2 2 2 2
 2 2 2 2 2 2 2 2 2 2
 2 2 2 2 2 2 2 2 2 2
 2 2 2 2 2 2 2 2 2 2
 2 2 2 2 2 2 2 2 2 2
 2 2 2 2 2 2 2 2 2 2
 2 2 2 2 2 2 2 2 2 2
 2 0 0 0 0 0 0 0 0 0
 0 0 0 0 0 0 0 0 0 0
 0 0 0 0 0 0 0 0 0 0
 0 0 0 0 0 0 0 0 0 0
 0 0 0 0 0 0 0 0 0 0
 0 0 0 0 0 0 0 0 0 0
 0 0 0 0 0 0 0 0 0 0
 0 0 0 0 0 0 0 0 0 0
 0 0 0 0 0 0 0 0 0 0
 0 0 0 0 0 0 0 0 0 0
 0 0 0 0 0 0 0 0 0 0
 0 0 0 0 0 0 0 0 0 0
 0 0 0 0 0 0 0 0 0 0
 0 0 0 0 0 0 0 0 0 0
 0 0 0 0 0 0 0 0 0 0
 0 0 0 0 0 0 0 0 0 0
 0 0 0 0 0 0 0 0 0 0
 0 0 0 0 0 0 0 0 0 0
 0 0 0 0 0 0 0 0 0 0
 0 0 0 0 0 0 0 0 0 0
 0 0 0 0 0 0 0 0 0 0
 0 0 0 0 0 0 0 0 0 0
 0 0 0 0 0 0 0 0 0 0
 0 0 0 0 0 0 0 0 0 0
 0 0 0 0 0 0 0 0 0 0
 0 0 0 0 0 0 0 0 0 0
 0 0 0 0 0 0 0 0 0 0
 0 0 0 0 0 0 0 0 0 0
 0 0 0 0 0 0 0 0 0 0
 0 0 0 0 0 0 0 0 0 0
 0 0 0 0 0 0 0 0 0 0
 0 0 0 0 0 0 0 0 0 0
 0 0 0 0 0 0 0 0 0 0
 0 0 0 0 0 0 0 0 0 0
 0 0 0 0 0 0 0 0 0 0
 0 0 0 0 0 0 0 0 0 0
 0 0 0 0 0 0 0 0 0 0
 0 0 0 0 0 0 0 0 0 0
 0 0 0 0 0 0 0 0 0 0
 0 0 0 0 0 0 0 0 0 0
 0 0 0 0 0 0 0 0 0 0
 0 0 0 0 0 0 0 0 0 0
 0 0 0 0 0 0 0 0 0 0
 0 0 0 0 0 0 0 0 0 0
 0 0 0 0 0 0 0 0 0 0
 0 0 0 0 0 0 0 0 0 0
 0 0 0 0 0 0 0 0 0 0
 0 0 0 0 0 0 0 0 0 0
 0 0 0 0 0 0 0 0 0 0
 0 0 0 0 0 0 0 0 0 0
 0 0 0 0 0 0 0 0 0 0
 0 0 0 0 0 0 0 0 0 0
 0 0 0 0 0 0 0 0 0 0
 0 0 0 0 0 0 0 0 0 0
 0 0 0 0 0 0 0 0 0 0
 0 0 0 0 0 0 0 0 0 0
 0 0 0 0 0 0 0 0 0 0
 0 0 0 0 0 0 0 0 0 0
 0 0 0 0 0 0 0 0 0 0
 0 0 0 0 0 0 0 0 0 0
 0 0 0 0 0 0 0 0 0 0
 0 0 0 0 0 0 0 0 0 0
 0 0 0 0 0 0 0 0 0 0
 0 0 0 0 0 0 0 0 0 0
 0 0 0 0 0 0 0 0 0 0
 0 0 0 0 0 0 0 0 0 0
 0 0 0 0 0 0 0 0 0 0
 0 0 0 0 0 0 0 0 0 0
 0 0 0 0 0 0 0 0 0 0
 0 0 0 0 0 0 0 0 0 0
 0 0 0 0 0 0 0 0 0 0
 0 0 0 0 0 0 0 0 0 0
 0 0 0 0 0 0 0 0 0 0
 0 0 0 0 0 0 0 0 0 0
 0 0 0 0 0 0 0 0 0 0
 0 0 0 0 0 0 0 0 0 0
 0 0 0 0 0
        </DataArray>
      </PointData>
      <Points>
        <DataArray type="Float32" NumberOfComponents="3" format="ascii">
  0.000000  0.500000  0.000000
  0.000000  0.490000  0.000000
  0.000000  0.480000  0.000000
  0.000000  0.470000  0.000000
  0.000000  0.460000  0.000000
  0.000000  0.450000  0.000000
  0.000000  0.440000  0.000000
  0.000000  0.430000  0.000000
  0.000000  0.420000  0.000000
  0.000000  0.410000  0.000000
  0.000000  0.400000  0.000000
  0.000000  0.390000  0.000000
  0.000000  0.380000  0.000000
  0.000000  0.370000  0.000000
  0.000000  0.360000  0.000000
  0.000000  0.350000  0.000000
  0.000000  0.340000  0.000000
  0.000000  0.330000  0.000000
  0.000000  0.320000  0.000000
  0.000000  0.310000  0.000000
  0.000000  0.300000  0.000000
  0.000000  0.290000  0.000000
  0.000000  0.280000  0.000000
  0.000000  0.270000  0.000000
  0.000000  0.260000  0.000000
  0.000000  0.250000  0.000000
  0.000000  0.240000  0.000000
  0.000000  0.230000  0.000000
  0.000000  0.220000  0.000000
  0.000000  0.210000  0.000000
  0.000000  0.200000  0.000000
  0.000000  0.190000  0.000000
  0.000000  0.180000  0.000000
  0.000000  0.170000  0.000000
  0.000000  0.160000  0.000000
  0.000000  0.150000  0.000000
  0.000000  0.140000  0.000000
  0.000000  0.130000  0.000000
  0.000000  0.120000  0.000000
  0.000000  0.110000  0.000000
  0.000000  0.100000  0.000000
  0.000000  0.090000  0.000000
  0.000000  0.080000  0.000000
  0.000000  0.070000  0.000000
  0.000000  0.060000  0.000000
  0.000000  0.050000  0.000000
  0.000000  0.040000  0.000000
  0.000000  0.030000  0.000000
  0.000000  0.020000  0.000000
  0.000000  0.010000  0.000000
 -0.100000  0.000000  0.000000
 -0.090000  0.000000  0.000000
 -0.080000  0.000000  0.000000
 -0.070000  0.000000  0.000000
 -0.060000  0.000000  0.000000
 -0.050000  0.000000  0.000000
 -0.040000  0.000000  0.000000
 -0.030000  0.000000  0.000000
 -0.020000  0.000000  0.000000
 -0.010000  0.000000  0.000000
 -0.000000  0.000000  0.000000
  0.010000  0.000000  0.000000
  0.020000  0.000000  0.000000
  0.030000  0.000000  0.000000
  0.040000  0.000000  0.000000
  0.050000  0.000000  0.000000
  0.060000  0.000000  0.000000
  0.070000  0.000000  0.000000
  0.080000  0.000000  0.000000
  0.090000  0.000000  0.000000
  0.100000  0.000000  0.000000
  0.110000  0.000000  0.000000
  0.120000  0.000000  0.000000
  0.130000  0.000000  0.000000
  0.140000  0.000000  0.000000
  0.150000  0.000000  0.000000
  0.160000  0.000000  0.000000
  0.170000  0.000000  0.000000
  0.180000  0.000000  0.000000
  0.190000  0.000000  0.000000
  0.200000  0.000000  0.000000
  0.210000  0.000000  0.000000
  0.220000  0.000000  0.000000
  0.230000  0.000000  0.000000
  0.240000  0.000000  0.000000
  0.250000  0.000000  0.000000
  0.260000  0.000000  0.000000
  0.270000  0.000000  0.000000
  0.280000  0.000000  0.000000
  0.290000  0.000000  0.000000
  0.300000  0.000000  0.000000
  0.310000  0.000000  0.000000
  0.320000  0.000000  0.000000
  0.330000  0.000000  0.000000
  0.340000  0.000000  0.000000
  0.350000  0.000000  0.000000
  0.360000  0.000000  0.000000
  0.370000  0.000000  0.000000
  0.380000  0.000000  0.000000
  0.390000  0.000000  0.000000
  0.400000  0.000000  0.000000
  0.410000  0.000000  0.000000
  0.420000  0.000000  0.000000
  0.430000  0.000000  0.000000
  0.440000  0.000000  0.000000
  0.450000  0.000000  0.000000
  0.460000  0.000000  0.000000
  0.470000  0.000000  0.000000
  0.480000  0.000000  0.000000
  0.490000  0.000000  0.000000
  0.500000  0.000000  0.000000
  0.510000  0.000000  0.000000
  0.520000  0.000000  0.000000
  0.530000  0.000000  0.000000
  0.540000  0.000000  0.000000
  0.550000  0.000000  0.000000
  0.560000  0.000000  0.000000
  0.570000  0.000000  0.000000
  0.580000  0.000000  0.000000
  0.590000  0.000000  0.000000
  0.600000  0.000000  0.000000
  0.610000  0.000000  0.000000
  0.620000  0.000000  0.000000
  0.630000  0.000000  0.000000
  0.640000  0.000000  0.000000
  0.650000  0.000000  0.000000
  0.660000  0.000000  0.000000
  0.670000  0.000000  0.000000
  0.680000  0.000000  0.000000
  0.690000  0.000000  0.000000
  0.700000  0.000000  0.000000
  0.710000  0.000000  0.000000
  0.720000  0.000000  0.000000
  0.730000  0.000000  0.000000
  0.740000  0.000000  0.000000
  0.750000  0.000000  0.000000
  0.760000  0.000000  0.000000
  0.770000  0.000000  0.000000
  0.780000  0.000000  0.000000
  0.790000  0.000000  0.000000
  0.800000  0.000000  0.000000
  0.700000  0.010000  0.000000
  0.700000  0.020000  0.000000
  0.700000  0.030000  0.000000
  0.700000  0.040000  0.000000
  0.700000  0.050000  0.000000
  0.700000  0.060000  0.000000
  0.700000  0.070000  0.000000
  0.700000  0.080000  0.000000
  0.700000  0.090000  0.000000
  0.700000  0.100000  0.000000
  0.700000  0.110000  0.000000
  0.700000  0.120000  0.000000
  0.700000  0.130000  0.000000
  0.700000  0.140000  0.000000
  0.700000  0.150000  0.000000
  0.700000  0.160000  0.000000
  0.700000  0.170000  0.000000
  0.700000  0.180000  0.000000
  0.700000  0.190000  0.000000
  0.700000  0.200000  0.000000
  0.700000  0.210000  0.000000
  0.700000  0.220000  0.000000
  0.700000  0.230000  0.000000
  0.700000  0.240000  0.000000
  0.700000  0.250000  0.000000
  0.700000  0.260000  0.000000
  0.700000  0.270000  0.000000
  0.700000  0.280000  0.000000
  0.700000  0.290000  0.000000
  0.700000  0.300000  0.000000
  0.700000  0.310000  0.000000
  0.700000  0.320000  0.000000
  0.700000  0.330000  0.000000
  0.700000  0.340000  0.000000
  0.700000  0.350000  0.000000
  0.700000  0.360000  0.000000
  0.700000  0.370000  0.000000
  0.700000  0.380000  0.000000
  0.700000  0.390000  0.000000
  0.700000  0.400000  0.000000
  0.700000  0.410000  0.000000
  0.700000  0.420000  0.000000
  0.700000  0.430000  0.000000
  0.700000  0.440000  0.000000
  0.700000  0.450000  0.000000
  0.700000  0.460000  0.000000
  0.700000  0.470000  0.000000
  0.700000  0.480000  0.000000
  0.700000  0.490000  0.000000
  0.700000  0.500000  0.000000
  0.012226  0.009298  0.000000
  0.022539  0.015514  0.000000
  0.030864  0.017442  0.000000
  0.009769  0.015940  0.000000
  0.017623  0.027335  0.000000
  0.010443  0.026549  0.000000
  0.028498  0.026464  0.000000
  0.031447  0.034181  0.000000
  0.041042  0.034938  0.000000
  0.020833  0.036154  0.000000
  0.031122  0.043744  0.000000
  0.008566  0.037619  0.000000
  0.012205  0.047390  0.000000
  0.008409  0.057056  0.000000
  0.009549  0.070460  0.000000
  0.017899  0.073310  0.000000
  0.023293  0.079908  0.000000
  0.010306  0.080529  0.000000
  0.018987  0.093292  0.000000
  0.008595  0.091163  0.000000
  0.013467  0.102224  0.000000
  0.009643  0.106614  0.000000
  0.010260  0.118433  0.000000
  0.012186  0.123750  0.000000
  0.009894  0.133377  0.000000
  0.015780  0.140157  0.000000
  0.010768  0.143574  0.000000
  0.020176  0.153224  0.000000
  0.007314  0.155772  0.000000
  0.023342  0.155118  0.000000
  0.042121  0.008895  0.000000
  0.026631  0.008415  0.000000
  0.049285  0.010823  0.000000
  0.040950  0.019938  0.000000
  0.056403  0.016612  0.000000
  0.055588  0.029880  0.000000
  0.072181  0.025748  0.000000
  0.044320  0.024307  0.000000
  0.048757  0.049056  0.000000
  0.044516  0.043067  0.000000
  0.036895  0.054011  0.000000
  0.018836  0.045841  0.000000
  0.040331  0.060537  0.000000
  0.029117  0.051362  0.000000
  0.048652  0.066064  0.000000
  0.017322  0.061126  0.000000
  0.022022  0.059754  0.000000
  0.031028  0.071577  0.000000
  0.038131  0.082350  0.000000
  0.021585  0.087777  0.000000
  0.033586  0.098951  0.000000
  0.029589  0.101171  0.000000
  0.021959  0.108813  0.000000
  0.030003  0.112070  0.000000
  0.022903  0.119286  0.000000
  0.028655  0.125286  0.000000
  0.024942  0.130431  0.000000
  0.029432  0.137623  0.000000
  0.028523  0.143099  0.000000
  0.030483  0.156796  0.000000
  0.081498  0.009513  0.000000
  0.064640  0.008124  0.000000
  0.069889  0.013704  0.000000
  0.060735  0.021328  0.000000
  0.078215  0.024422  0.000000
  0.091457  0.024569  0.000000
  0.107810  0.025728  0.000000
  0.081110  0.035665  0.000000
  0.079993  0.046386  0.000000
  0.051435  0.034508  0.000000
  0.065015  0.047221  0.000000
  0.065868  0.039194  0.000000
  0.053901  0.059930  0.000000
  0.054762  0.074390  0.000000
  0.068592  0.073395  0.000000
  0.032604  0.067092  0.000000
  0.055388  0.081234  0.000000
  0.042826  0.074636  0.000000
  0.046077  0.087046  0.000000
  0.034301  0.087950  0.000000
  0.047865  0.095926  0.000000
  0.046094  0.100277  0.000000
  0.044526  0.109450  0.000000
  0.039370  0.113965  0.000000
  0.045811  0.120828  0.000000
  0.043363  0.126865  0.000000
  0.042855  0.133593  0.000000
  0.043185  0.140051  0.000000
  0.041468  0.148750  0.000000
  0.038268  0.153212  0.000000
  0.107573  0.009015  0.000000
  0.094226  0.009498  0.000000
  0.108107  0.020883  0.000000
  0.081526  0.015109  0.000000
  0.110743  0.037228  0.000000
  0.098272  0.014461  0.000000
  0.099557  0.036012  0.000000
  0.094267  0.026106  0.000000
  0.087891  0.048927  0.000000
  0.066561  0.033800  0.000000
  0.099890  0.049735  0.000000
  0.068061  0.054492  0.000000
  0.089929  0.058048  0.000000
  0.056223  0.049264  0.000000
  0.061225  0.064773  0.000000
  0.077295  0.055314  0.000000
  0.070744  0.065304  0.000000
  0.075665  0.078678  0.000000
  0.065916  0.083537  0.000000
  0.060337  0.089834  0.000000
  0.068447  0.098032  0.000000
  0.061024  0.098651  0.000000
  0.056465  0.111001  0.000000
  0.062328  0.108643  0.000000
  0.059434  0.118863  0.000000
  0.058057  0.125507  0.000000
  0.059195  0.132749  0.000000
  0.056535  0.139984  0.000000
  0.053875  0.148283  0.000000
  0.055941  0.154156  0.000000
  0.132698  0.008649  0.000000
  0.118092  0.010348  0.000000
  0.131749  0.017105  0.000000
  0.120367  0.015673  0.000000
  0.142506  0.020307  0.000000
  0.121620  0.025001  0.000000
  0.117879  0.032541  0.000000
  0.130993  0.033911  0.000000
  0.085185  0.037390  0.000000
  0.122052  0.044610  0.000000
  0.099122  0.041158  0.000000
  0.117363  0.044723  0.000000
  0.108391  0.052247  0.000000
  0.097538  0.061237  0.000000
  0.105402  0.068952  0.000000
  0.081420  0.064532  0.000000
  0.093039  0.070451  0.000000
  0.084836  0.072409  0.000000
  0.090252  0.088877  0.000000
  0.081610  0.084443  0.000000
  0.076949  0.092114  0.000000
  0.082614  0.098112  0.000000
  0.078475  0.105452  0.000000
  0.074464  0.110936  0.000000
  0.076873  0.116601  0.000000
  0.073783  0.124970  0.000000
  0.071591  0.129064  0.000000
  0.070414  0.138659  0.000000
  0.068755  0.145415  0.000000
  0.064824  0.150944  0.000000
  0.153973  0.008606  0.000000
  0.142803  0.010363  0.000000
  0.162447  0.022658  0.000000
  0.149236  0.020898  0.000000
  0.183826  0.016640  0.000000
  0.156590  0.030323  0.000000
  0.175090  0.019253  0.000000
  0.132704  0.027634  0.000000
  0.144498  0.030918  0.000000
  0.154997  0.040175  0.000000
  0.142645  0.048023  0.000000
  0.145099  0.038809  0.000000
  0.133872  0.041943  0.000000
  0.120224  0.059954  0.000000
  0.109144  0.058518  0.000000
  0.116529  0.069917  0.000000
  0.104376  0.076941  0.000000
  0.118145  0.075630  0.000000
  0.094496  0.080189  0.000000
  0.108029  0.085149  0.000000
  0.098468  0.092144  0.000000
  0.100187  0.098783  0.000000
  0.093124  0.102597  0.000000
  0.094644  0.109883  0.000000
  0.093072  0.116815  0.000000
  0.088703  0.122018  0.000000
  0.086601  0.128892  0.000000
  0.085646  0.136136  0.000000
  0.081203  0.144831  0.000000
  0.082951  0.149301  0.000000
  0.195773  0.008971  0.000000
  0.168267  0.010817  0.000000
  0.179342  0.007851  0.000000
  0.160882  0.013532  0.000000
  0.213373  0.026587  0.000000
  0.192473  0.015825  0.000000
  0.192776  0.026707  0.000000
  0.177541  0.026542  0.000000
  0.165514  0.030386  0.000000
  0.174400  0.039207  0.000000
  0.164959  0.041584  0.000000
  0.171979  0.052285  0.000000
  0.153019  0.053428  0.000000
  0.131933  0.051414  0.000000
  0.138155  0.057946  0.000000
  0.125273  0.059371  0.000000
  0.132901  0.068349  0.000000
  0.131092  0.074134  0.000000
  0.128054  0.081124  0.000000
  0.113965  0.086472  0.000000
  0.123334  0.092485  0.000000
  0.115100  0.096777  0.000000
  0.112617  0.103875  0.000000
  0.113184  0.109097  0.000000
  0.106213  0.114118  0.000000
  0.105973  0.122095  0.000000
  0.102783  0.127585  0.000000
  0.099225  0.134266  0.000000
  0.096442  0.142263  0.000000
  0.092980  0.147117  0.000000
  0.216701  0.010600  0.000000
  0.204121  0.013934  0.000000
  0.245314  0.019401  0.000000
  0.213120  0.015756  0.000000
  0.249321  0.027671  0.000000
  0.225241  0.011992  0.000000
  0.228756  0.026379  0.000000
  0.202924  0.023938  0.000000
  0.217385  0.031516  0.000000
  0.205134  0.034304  0.000000
  0.193705  0.032249  0.000000
  0.179759  0.033842  0.000000
  0.181185  0.045735  0.000000
  0.156938  0.049641  0.000000
  0.163216  0.062800  0.000000
  0.152835  0.063855  0.000000
  0.144049  0.062736  0.000000
  0.158544  0.070115  0.000000
  0.143924  0.075291  0.000000
  0.148994  0.078491  0.000000
  0.140339  0.086430  0.000000
  0.132564  0.089568  0.000000
  0.134877  0.099645  0.000000
  0.128534  0.101386  0.000000
  0.128115  0.110859  0.000000
  0.123911  0.116612  0.000000
  0.119065  0.122433  0.000000
  0.115385  0.130908  0.000000
  0.111350  0.140585  0.000000
  0.108638  0.144845  0.000000
  0.252725  0.011982  0.000000
  0.235063  0.011842  0.000000
  0.259920  0.010815  0.000000
  0.241448  0.012763  0.000000
  0.276097  0.018507  0.000000
  0.263852  0.016227  0.000000
  0.260794  0.024455  0.000000
  0.243493  0.030389  0.000000
  0.228708  0.021487  0.000000
  0.230945  0.033758  0.000000
  0.212085  0.040555  0.000000
  0.207873  0.049218  0.000000
  0.206416  0.054869  0.000000
  0.191561  0.042249  0.000000
  0.193653  0.054848  0.000000
  0.171410  0.056396  0.000000
  0.185060  0.053949  0.000000
  0.177987  0.064095  0.000000
  0.172997  0.072939  0.000000
  0.165091  0.076890  0.000000
  0.163849  0.084027  0.000000
  0.152079  0.086033  0.000000
  0.151872  0.093387  0.000000
  0.148011  0.099068  0.000000
  0.146188  0.105652  0.000000
  0.139474  0.113579  0.000000
  0.134511  0.119881  0.000000
  0.129697  0.129196  0.000000
  0.125327  0.136550  0.000000
  0.123812  0.141330  0.000000
  0.304130  0.011650  0.000000
  0.277068  0.010446  0.000000
  0.317328  0.014651  0.000000
  0.283960  0.013422  0.000000
  0.316833  0.031337  0.000000
  0.293554  0.011299  0.000000
  0.311076  0.025873  0.000000
  0.272031  0.026095  0.000000
  0.260452  0.036685  0.000000
  0.247602  0.038218  0.000000
  0.240766  0.042274  0.000000
  0.235228  0.048528  0.000000
  0.197407  0.044026  0.000000
  0.227198  0.041689  0.000000
  0.219858  0.045327  0.000000
  0.218199  0.057701  0.000000
  0.204628  0.065360  0.000000
  0.193234  0.062579  0.000000
  0.195167  0.071886  0.000000
  0.184202  0.069620  0.000000
  0.186432  0.078448  0.000000
  0.177646  0.081773  0.000000
  0.173942  0.088902  0.000000
  0.167878  0.095011  0.000000
  0.163893  0.101172  0.000000
  0.155470  0.109207  0.000000
  0.150405  0.116959  0.000000
  0.146478  0.123410  0.000000
  0.142074  0.132321  0.000000
  0.137069  0.136358  0.000000
  0.346434  0.011372  0.000000
  0.308535  0.013844  0.000000
  0.360056  0.011414  0.000000
  0.336527  0.011420  0.000000
  0.357597  0.013620  0.000000
  0.325027  0.010145  0.000000
  0.331326  0.019987  0.000000
  0.321358  0.023742  0.000000
  0.299057  0.024012  0.000000
  0.295315  0.037213  0.000000
  0.292672  0.020253  0.000000
  0.267992  0.031958  0.000000
  0.261009  0.043031  0.000000
  0.266546  0.053848  0.000000
  0.253372  0.048283  0.000000
  0.239433  0.059687  0.000000
  0.229486  0.053489  0.000000
  0.224951  0.062196  0.000000
  0.222350  0.070032  0.000000
  0.211386  0.066259  0.000000
  0.204357  0.078136  0.000000
  0.201870  0.081193  0.000000
  0.191734  0.087345  0.000000
  0.189888  0.092290  0.000000
  0.180580  0.098080  0.000000
  0.171866  0.105380  0.000000
  0.166398  0.110801  0.000000
  0.162619  0.120327  0.000000
  0.157257  0.132331  0.000000
  0.150708  0.133352  0.000000
  0.406516  0.012908  0.000000
  0.382024  0.011194  0.000000
  0.416481  0.011585  0.000000
  0.393612  0.011740  0.000000
  0.401899  0.012919  0.000000
  0.373127  0.011883  0.000000
  0.370674  0.018532  0.000000
  0.353558  0.027391  0.000000
  0.343636  0.017118  0.000000
  0.336505  0.026137  0.000000
  0.328935  0.036735  0.000000
  0.302699  0.034399  0.000000
  0.286852  0.029926  0.000000
  0.292404  0.047089  0.000000
  0.275719  0.041373  0.000000
  0.274142  0.049722  0.000000
  0.264707  0.061881  0.000000
  0.252503  0.054302  0.000000
  0.256029  0.065664  0.000000
  0.246128  0.060434  0.000000
  0.235879  0.068577  0.000000
  0.234708  0.075604  0.000000
  0.216733  0.076830  0.000000
  0.214876  0.088140  0.000000
  0.203675  0.093292  0.000000
  0.192321  0.101545  0.000000
  0.187071  0.108562  0.000000
  0.180200  0.115170  0.000000
  0.172316  0.122799  0.000000
  0.167226  0.127553  0.000000
  0.498821  0.011070  0.000000
  0.452365  0.012023  0.000000
  0.462346  0.012727  0.000000
  0.436334  0.010252  0.000000
  0.448081  0.012749  0.000000
  0.422855  0.011861  0.000000
  0.406878  0.027252  0.000000
  0.404786  0.026905  0.000000
  0.387453  0.015962  0.000000
  0.374784  0.025096  0.000000
  0.359217  0.025884  0.000000
  0.348406  0.032776  0.000000
  0.335337  0.032796  0.000000
  0.339055  0.046978  0.000000
  0.310570  0.039176  0.000000
  0.308415  0.050721  0.000000
  0.301224  0.047755  0.000000
  0.284275  0.031921  0.000000
  0.281666  0.044166  0.000000
  0.289842  0.055771  0.000000
  0.275559  0.060496  0.000000
  0.261248  0.071930  0.000000
  0.246446  0.072951  0.000000
  0.227803  0.082561  0.000000
  0.222366  0.085097  0.000000
  0.211438  0.094652  0.000000
  0.205435  0.102252  0.000000
  0.196226  0.109280  0.000000
  0.189559  0.121196  0.000000
  0.181358  0.122810  0.000000
  0.540452  0.011635  0.000000
  0.504092  0.012622  0.000000
  0.519871  0.011990  0.000000
  0.486704  0.013821  0.000000
  0.504939  0.025238  0.000000
  0.470123  0.012771  0.000000
  0.448861  0.026570  0.000000
  0.452536  0.035638  0.000000
  0.419331  0.022110  0.000000
  0.431429  0.027134  0.000000
  0.416645  0.036242  0.000000
  0.390619  0.027031  0.000000
  0.376598  0.030759  0.000000
  0.384619  0.040946  0.000000
  0.363729  0.037259  0.000000
  0.346969  0.041918  0.000000
  0.352307  0.054696  0.000000
  0.323108  0.041695  0.000000
  0.326868  0.055615  0.000000
  0.319197  0.047158  0.000000
  0.302881  0.060420  0.000000
  0.287416  0.060510  0.000000
  0.278654  0.067844  0.000000
  0.257867  0.079692  0.000000
  0.246793  0.081340  0.000000
  0.237211  0.089313  0.000000
  0.229212  0.100195  0.000000
  0.217131  0.105518  0.000000
  0.208807  0.114201  0.000000
  0.199773  0.118441  0.000000
  0.592606  0.009770  0.000000
  0.560882  0.014610  0.000000
  0.575676  0.010998  0.000000
  0.555375  0.010267  0.000000
  0.529337  0.026796  0.000000
  0.528247  0.010947  0.000000
  0.482544  0.009909  0.000000
  0.494499  0.038394  0.000000
  0.456370  0.025054  0.000000
  0.470312  0.017425  0.000000
  0.463850  0.028374  0.000000
  0.431790  0.015860  0.000000
  0.441252  0.021623  0.000000
  0.435309  0.031952  0.000000
  0.391292  0.031306  0.000000
  0.402309  0.039089  0.000000
  0.393846  0.040851  0.000000
  0.370132  0.036628  0.000000
  0.366764  0.050156  0.000000
  0.355237  0.040494  0.000000
  0.336937  0.049518  0.000000
  0.315196  0.057696  0.000000
  0.304858  0.065885  0.000000
  0.292728  0.068649  0.000000
  0.273114  0.073799  0.000000
  0.265974  0.084275  0.000000
  0.244090  0.086102  0.000000
  0.235574  0.097042  0.000000
  0.228891  0.111928  0.000000
  0.215673  0.111221  0.000000
  0.619337  0.011585  0.000000
  0.607074  0.011127  0.000000
  0.581484  0.018463  0.000000
  0.588554  0.031719  0.000000
  0.572096  0.013173  0.000000
  0.541775  0.013646  0.000000
  0.563680  0.027415  0.000000
  0.544498  0.026073  0.000000
  0.511749  0.013803  0.000000
  0.525533  0.019312  0.000000
  0.516049  0.025851  0.000000
  0.495636  0.024603  0.000000
  0.480781  0.026895  0.000000
  0.486326  0.022614  0.000000
  0.467031  0.040614  0.000000
  0.445991  0.041876  0.000000
  0.432599  0.043339  0.000000
  0.421003  0.028532  0.000000
  0.414047  0.041214  0.000000
  0.393928  0.052790  0.000000
  0.378465  0.045040  0.000000
  0.358760  0.053636  0.000000
  0.340101  0.059943  0.000000
  0.330332  0.065065  0.000000
  0.313979  0.068060  0.000000
  0.293247  0.076399  0.000000
  0.275263  0.079592  0.000000
  0.262267  0.093026  0.000000
  0.248419  0.102122  0.000000
  0.231545  0.105892  0.000000
  0.645727  0.018789  0.000000
  0.652481  0.020703  0.000000
  0.647104  0.010378  0.000000
  0.618325  0.019880  0.000000
  0.620859  0.034604  0.000000
  0.598385  0.016002  0.000000
  0.607220  0.017916  0.000000
  0.590181  0.020421  0.000000
  0.575499  0.046473  0.000000
  0.573267  0.029759  0.000000
  0.555880  0.018507  0.000000
  0.540740  0.025452  0.000000
  0.537945  0.038709  0.000000
  0.527085  0.034013  0.000000
  0.512357  0.031756  0.000000
  0.507347  0.040277  0.000000
  0.475228  0.042214  0.000000
  0.473291  0.030511  0.000000
  0.452329  0.042990  0.000000
  0.431127  0.042199  0.000000
  0.407485  0.046426  0.000000
  0.402243  0.055624  0.000000
  0.381955  0.052846  0.000000
  0.372144  0.064185  0.000000
  0.344171  0.070701  0.000000
  0.327208  0.063706  0.000000
  0.313164  0.074726  0.000000
  0.290999  0.079524  0.000000
  0.272343  0.095010  0.000000
  0.256666  0.096126  0.000000
  0.674614  0.012020  0.000000
  0.677627  0.033926  0.000000
  0.670659  0.020261  0.000000
  0.658480  0.012111  0.000000
  0.663777  0.012413  0.000000
  0.635439  0.011035  0.000000
  0.626277  0.013616  0.000000
  0.634139  0.020547  0.000000
  0.593752  0.030891  0.000000
  0.591788  0.055282  0.000000
  0.609194  0.038134  0.000000
  0.609138  0.028541  0.000000
  0.602411  0.036833  0.000000
  0.584102  0.050754  0.000000
  0.555781  0.032515  0.000000
  0.548651  0.035603  0.000000
  0.529306  0.042521  0.000000
  0.513422  0.047081  0.000000
  0.492465  0.039003  0.000000
  0.480176  0.051059  0.000000
  0.465591  0.047092  0.000000
  0.453708  0.056172  0.000000
  0.423051  0.056741  0.000000
  0.415778  0.053724  0.000000
  0.388094  0.059747  0.000000
  0.370801  0.055397  0.000000
  0.347493  0.077415  0.000000
  0.319479  0.085398  0.000000
  0.288307  0.090479  0.000000
  0.278404  0.091521  0.000000
  0.685572  0.034544  0.000000
  0.687333  0.013206  0.000000
  0.681375  0.014175  0.000000
  0.684266  0.053182  0.000000
  0.677651  0.076906  0.000000
  0.678964  0.040593  0.000000
  0.661038  0.052418  0.000000
  0.663904  0.034885  0.000000
  0.655949  0.029071  0.000000
  0.653858  0.036719  0.000000
  0.641625  0.033805  0.000000
  0.635620  0.027418  0.000000
  0.622388  0.029628  0.000000
  0.615614  0.044466  0.000000
  0.577931  0.027553  0.000000
  0.595185  0.044246  0.000000
  0.564220  0.035001  0.000000
  0.567218  0.047010  0.000000
  0.538898  0.055231  0.000000
  0.528900  0.052458  0.000000
  0.503177  0.056163  0.000000
  0.484659  0.036816  0.000000
  0.481736  0.059426  0.000000
  0.442542  0.053691  0.000000
  0.426682  0.058792  0.000000
  0.416643  0.061935  0.000000
  0.388009  0.069512  0.000000
  0.352040  0.060563  0.000000
  0.317316  0.079850  0.000000
  0.301868  0.081452  0.000000
  0.662597  0.105016  0.000000
  0.687745  0.028259  0.000000
  0.670015  0.077395  0.000000
  0.687954  0.128359  0.000000
  0.683204  0.068401  0.000000
  0.683283  0.055833  0.000000
  0.691451  0.046480  0.000000
  0.668301  0.037419  0.000000
  0.678083  0.063542  0.000000
  0.662576  0.049508  0.000000
  0.666624  0.055269  0.000000
  0.644724  0.038497  0.000000
  0.637759  0.049987  0.000000
  0.628215  0.049453  0.000000
  0.632394  0.039015  0.000000
  0.619028  0.049098  0.000000
  0.600071  0.051797  0.000000
  0.577297  0.042969  0.000000
  0.552116  0.047322  0.000000
  0.556673  0.048638  0.000000
  0.541427  0.047614  0.000000
  0.519590  0.043386  0.000000
  0.502108  0.047786  0.000000
  0.480213  0.055627  0.000000
  0.462587  0.053343  0.000000
  0.440473  0.056665  0.000000
  0.401670  0.061733  0.000000
  0.380840  0.066334  0.000000
  0.352778  0.072488  0.000000
  0.337106  0.076671  0.000000
 -0.010000  0.500000  0.000000
 -0.010000  0.490000  0.000000
 -0.010000  0.480000  0.000000
 -0.010000  0.470000  0.000000
 -0.010000  0.460000  0.000000
 -0.010000  0.450000  0.000000
 -0.010000  0.440000  0.000000
 -0.010000  0.430000  0.000000
 -0.010000  0.420000  0.000000
 -0.010000  0.410000  0.000000
 -0.010000  0.400000  0.000000
 -0.010000  0.390000  0.000000
 -0.010000  0.380000  0.000000
 -0.010000  0.370000  0.000000
 -0.010000  0.360000  0.000000
 -0.010000  0.350000  0.000000
 -0.010000  0.340000  0.000000
 -0.010000  0.330000  0.000000
 -0.010000  0.320000  0.000000
 -0.010000  0.310000  0.000000
 -0.010000  0.300000  0.000000
 -0.010000  0.290000  0.000000
 -0.010000  0.280000  0.000000
 -0.010000  0.270000  0.000000
 -0.010000  0.260000  0.000000
 -0.010000  0.250000  0.000000
 -0.010000  0.240000  0.000000
 -0.010000  0.230000  0.000000
 -0.010000  0.220000  0.000000
 -0.010000  0.210000  0.000000
 -0.010000  0.200000  0.000000
 -0.010000  0.190000  0.000000
 -0.010000  0.180000  0.000000
 -0.010000  0.170000  0.000000
 -0.010000  0.160000  0.000000
 -0.010000  0.150000  0.000000
 -0.010000  0.140000  0.000000
 -0.010000  0.130000  0.000000
 -0.010000  0.120000  0.000000
 -0.010000  0.110000  0.000000
 -0.010000  0.100000  0.000000
 -0.010000  0.090000  0.000000
 -0.010000  0.080000  0.000000
 -0.010000  0.070000  0.000000
 -0.010000  0.060000  0.000000
 -0.010000  0.050000  0.000000
 -0.010000  0.040000  0.000000
 -0.010000  0.030000  0.000000
 -0.010000  0.020000  0.000000
 -0.010000  0.010000  0.000000
 -0.100000 -0.010000  0.000000
 -0.090000 -0.010000  0.000000
 -0.080000 -0.010000  0.000000
 -0.070000 -0.010000  0.000000
 -0.060000 -0.010000  0.000000
 -0.050000 -0.010000  0.000000
 -0.040000 -0.010000  0.000000
 -0.030000 -0.010000  0.000000