<?xml version="1.0" encoding="UTF-8"?>
<VTKFile type="UnstructuredGrid" version="1.0" byte_order="LittleEndian">
<UnstructuredGrid>
  <Piece NumberOfPoints="1554" NumberOfCells="1554">
      <PointData>
        <DataArray type="Int32" Name="Type" format="ascii">
 1 1 1 1 1 1 1 1 1 1
 1 1 1 1 1 1 1 1 1 1
 1 1 1 1 1 1 1 1 1 1
 1 1 1 1 1 1 1 1 1 1
 1 1 1 1 1 1 1 1 1 1
 1 1 1 1 1 1 1 1 1 1
 1 3 3 3 3 3 3 3 3 3
 3 3 3 3 3 3 3 3 3 3
 3 3 3 3 3 3 3 3 3 3
 3 3 3 3 3 3 3 3 3 3
 3 3 3 3 3 3 3 3 3 3
 3 3 3 3 3 3 3 3 3 3
 3 3 3 3 3 3 3 3 3 3
 1 1 1 1 1 1 1 1 1 1
 1 1 1 1 1 1 1 1 1 1
 1 1 1 1 1 1 1 1 1 1
 1 1 1 1 1 1 1 1 1 1
 1 1 1 1 1 1 1 1 1 1
 1 1 1 1 1 1 1 1 1 1
 1 2 2 2 2 2 2 2 2 2
 2 2 2 2 2 2 2 2 2 2
 2 2 2 2 2 2 2 2 2 2
 2 2 2 2 2 2 2 2 2 2
 2 2 2 2 2 2 2 2 2 2
 2 2 2 2 2 2 2 2 2 2
 2 2 2 2 2 2 2 2 2 2
 2 2 2 2 2 2 2 2 2 2
 2 2 2 2 2 2 2 2 2 2
 2 2 2 2 2 2 2 2 2 2
 2 2 2 2 2 2 2 2 2 2
 2 2 2 2 2 2 2 2 2 2
 2 2 2 2 2 2 2 2 2 2
 2 2 2 2 2 2 2 2 2 2
 2 2 2 2 2 2 2 2 2 2
 2 2 2 2 2 2 2 2 2 2
 2 2 2 2 2 2 2 2 2 2
 2 2 2 2 2 2 2 2 2 2
 2 2 2 2 2 2 2 2 2 2
 2 2 2 2 2 2 2 2 2 2
 2 2 2 2 2 2 2 2 2 2
 2 2 2 2 2 2 2 2 2 2
 2 2 2 2 2 2 2 2 2 2
 2 2 2 2 2 2 2 2 2 2
 2 2 2 2 2 2 2 2 2 2
 2 2 2 2 2 2 2 2 2 2
 2 2 2 2 2 2 2 2 2 2
 2 2 2 2 2 2 2 2 2 2
 2 2 2 2 2 2 2 2 2 2
 2 2 2 2 2 2 2 2 2 2
 2 2 2 2 2 2 2 2 2 2
 2 2 2 2 2 2 2 2 2 2
 2 2 2 2 2 2 2 2 2 2
 2 2 2 2 2 2 2 2 2 2
 2 2 2 2 2 2 2 2 2 2
 2 2 2 2 2 2 2 2 2 2
 2 2 2 2 2 2 2 2 2 2
 2 2 2 2 2 2 2 2 2 2
 2 2 2 2 2 2 2 2 2 2
 2 2 2 2 2 2 2 2 2 2
 2 2 2 2 2 2 2 2 2 2
 2 2 2 2 2 2 2 2 2 2
 2 2 2 2 2 2 2 2 2 2
 2 2 2 2 2 2 2 2 2 2
 2 2 2 2 2 2 2 2 2 2
 2 2 2 2 2 2 2 2 2 2
 2 2 2 2 2 2 2 2 2 2
 2 2 2 2 2 2 2 2 2 2
 2 2 2 2 2 2 2 2 2 2
 2 2 2 2 2 2 2 2 2 2
 2 2 2 2 2 2 2 2 2 2
 2 2 2 2 2 2 2 2 2 2
 2 2 2 2 2 2 2 2 2 2
 2 2 2 2 2 2 2 2 2 2
 2 2 2 2 2 2 2 2 2 2
 2 2 2 2 2 2 2 2 2 2
 2 2 2 2 2 2 2 2 2 2
 2 2 2 2 2 2 2 2 2 2
 2 2 2 2 2 2 2 2 2 2
 2 2 2 2 2 2 2 2 2 2
 0 0 0 0 0 0 0 0 0 0
 0 0 0 0 0 0 0 0 0 0
 0 0 0 0 0 0 0 0 0 0
 0 0 0 0 0 0 0 0 0 0
 0 0 0 0 0 0 0 0 0 0
 0 0 0 0 0 0 0 0 0 0
 0 0 0 0 0 0 0 0 0 0
 0 0 0 0 0 0 0 0 0 0
 0 0 0 0 0 0 0 0 0 0
 0 0 0 0 0 0 0 0 0 0
 0 0 0 0 0 0 0 0 0 0
 0 0 0 0 0 0 0 0 0 0
 0 0 0 0 0 0 0 0 0 0
 0 0 0 0 0 0 0 0 0 0
 0 0 0 0 0 0 0 0 0 0
 0 0 0 0 0 0 0 0 0 0
 0 0 0 0 0 0 0 0 0 0
 0 0 0 0 0 0 0 0 0 0
 0 0 0 0 0 0 0 0 0 0
 0 0 0 0 0 0 0 0 0 0
 0 0 0 0 0 0 0 0 0 0
 0 0 0 0 0 0 0 0 0 0
 0 0 0 0 0 0 0 0 0 0
 0 0 0 0 0 0 0 0 0 0
 0 0 0 0 0 0 0 0 0 0
 0 0 0 0 0 0 0 0 0 0
 0 0 0 0 0 0 0 0 0 0
 0 0 0 0 0 0 0 0 0 0
 0 0 0 0 0 0 0 0 0 0
 0 0 0 0 0 0 0 0 0 0
 0 0 0 0 0 0 0 0 0 0
 0 0 0 0 0 0 0 0 0 0
 0 0 0 0 0 0 0 0 0 0
 0 0 0 0 0 0 0 0 0 0
 0 0 0 0 0 0 0 0 0 0
 0 0 0 0 0 0 0 0 0 0
 0 0 0 0 0 0 0 0 0 0
 0 0 0 0 0 0 0 0 0 0
 0 0 0 0 0 0 0 0 0 0
 0 0 0 0 0 0 0 0 0 0
 0 0 0 0 0 0 0 0 0 0
 0 0 0 0 0 0 0 0 0 0
 0 0 0 0 0 0 0 0 0 0
 0 0 0 0 0 0 0 0 0 0
 0 0 0 0 0 0 0 0 0 0
 0 0 0 0 0 0 0 0 0 0
 0 0 0 0 0 0 0 0 0 0
 0 0 0 0 0 0 0 0 0 0
 0 0 0 0 0 0 0 0 0 0
 0 0 0 0 0 0 0 0 0 0
 0 0 0 0 0 0 0 0 0 0
 0 0 0 0 0 0 0 0 0 0
 0 0 0 0 0 0 0 0 0 0
 0 0 0 0 0 0 0 0 0 0
 0 0 0 0 0 0 0 0 0 0
 0 0 0 0 0 0 0 0 0 0
 0 0 0 0 0 0 0 0 0 0
 0 0 0 0 0 0 0 0 0 0
 0 0 0 0 0 0 0 0 0 0
 0 0 0 0 0 0 0 0 0 0
 0 0 0 0 0 0 0 0 0 0
 0 0 0 0 0 0 0 0 0 0
 0 0 0 0 0 0 0 0 0 0
 0 0 0 0 0 0 0 0 0 0
 0 0 0 0 0 0 0 0 0 0
 0 0 0 0 0 0 0 0 0 0
 0 0 0 0 0 0 0 0 0 0
 0 0 0 0 0 0 0 0 0 0
 0 0 0 0 0 0 0 0 0 0
 0 0 0 0 0 0 0 0 0 0
 0 0 0 0 0 0 0 0 0 0
 0 0 0 0 0 0 0 0 0 0
 0 0 0 0 0 0 0 0 0 0
 0 0 0 0 0 0 0 0 0 0
 0 0 0 0 0 0 0 0 0 0
 0 0 0 0 0 0 0 0 0 0
 0 0 0 0
        </DataArray>
      </PointData>
      <Points>
        <DataArray type="Float32" NumberOfComponents="3" format="ascii">
  0.000000  0.500000  0.000000
  0.000000  0.490000  0.000000
  0.000000  0.480000  0.000000
  0.000000  0.470000  0.000000
  0.000000  0.460000  0.000000
  0.000000  0.450000  0.000000
  0.000000  0.440000  0.000000
  0.000000  0.430000  0.000000
  0.000000  0.420000  0.000000
  0.000000  0.410000  0.000000
  0.000000  0.400000  0.000000
  0.000000  0.390000  0.000000
  0.000000  0.380000  0.000000
  0.000000  0.370000  0.000000
  0.000000  0.360000  0.000000
  0.000000  0.350000  0.000000
  0.000000  0.340000  0.000000
  0.000000  0.330000  0.000000
  0.000000  0.320000  0.000000
  0.000000  0.310000  0.000000
  0.000000  0.300000  0.000000
  0.000000  0.290000  0.000000
  0.000000  0.280000  0.000000
  0.000000  0.270000  0.000000
  0.000000  0.260000  0.000000
  0.000000  0.250000  0.000000
  0.000000  0.240000  0.000000
  0.000000  0.230000  0.000000
  0.000000  0.220000  0.000000
  0.000000  0.210000  0.000000
  0.000000  0.200000  0.000000
  0.000000  0.190000  0.000000
  0.000000  0.180000  0.000000
  0.000000  0.170000  0.000000
  0.000000  0.160000  0.000000
  0.000000  0.150000  0.000000
  0.000000  0.140000  0.000000
  0.000000  0.130000  0.000000
  0.000000  0.120000  0.000000
  0.000000  0.110000  0.000000
  0.000000  0.100000  0.000000
  0.000000  0.090000  0.000000
  0.000000  0.080000  0.000000
  0.000000  0.070000  0.000000
  0.000000  0.060000  0.000000
  0.000000  0.050000  0.000000
  0.000000  0.040000  0.000000
  0.000000  0.030000  0.000000
  0.000000  0.020000  0.000000
  0.000000  0.010000  0.000000
 -0.100000  0.000000  0.000000
 -0.090000  0.000000  0.000000
 -0.080000  0.000000  0.000000
 -0.070000  0.000000  0.000000
 -0.060000  0.000000  0.000000
 -0.050000  0.000000  0.000000
 -0.040000  0.000000  0.000000
 -0.030000  0.000000  0.000000
 -0.020000  0.000000  0.000000
 -0.010000  0.000000  0.000000
 -0.000000  0.000000  0.000000
  0.010000  0.000000  0.000000
  0.020000  0.000000  0.000000
  0.030000  0.000000  0.000000
  0.040000  0.000000  0.000000
  0.050000  0.000000  0.000000
  0.060000  0.000000  0.000000
  0.070000  0.000000  0.000000
  0.080000  0.000000  0.000000
  0.090000  0.000000  0.000000
  0.100000  0.000000  0.000000
  0.110000  0.000000  0.000000
  0.120000  0.000000  0.000000
  0.130000  0.000000  0.000000
  0.140000  0.000000  0.000000
  0.150000  0.000000  0.000000
  0.160000  0.000000  0.000000
  0.170000  0.000000  0.000000
  0.180000  0.000000  0.000000
  0.190000  0.000000  0.000000
  0.200000  0.000000  0.000000
  0.210000  0.000000  0.000000
  0.220000  0.000000  0.000000
  0.230000  0.000000  0.000000
  0.240000  0.000000  0.000000
  0.250000  0.000000  0.000000
  0.260000  0.000000  0.000000
  0.270000  0.000000  0.000000
  0.280000  0.000000  0.000000
  0.290000  0.000000  0.000000
  0.300000  0.000000  0.000000
  0.310000  0.000000  0.000000
  0.320000  0.000000  0.000000
  0.330000  0.000000  0.000000
  0.340000  0.000000  0.000000
  0.350000  0.000000  0.000000
  0.360000  0.000000  0.000000
  0.370000  0.000000  0.000000
  0.380000  0.000000  0.000000
  0.390000  0.000000  0.000000
  0.400000  0.000000  0.000000
  0.410000  0.000000  0.000000
  0.420000  0.000000  0.000000
  0.430000  0.000000  0.000000
  0.440000  0.000000  0.000000
  0.450000  0.000000  0.000000
  0.460000  0.000000  0.000000
  0.470000  0.000000  0.000000
  0.480000  0.000000  0.000000
  0.490000  0.000000  0.000000
  0.500000  0.000000  0.000000
  0.510000  0.000000  0.000000
  0.520000  0.000000  0.000000
  0.530000  0.000000  0.000000
  0.540000  0.000000  0.000000
  0.550000  0.000000  0.000000
  0.560000  0.000000  0.000000
  0.570000  0.000000  0.000000
  0.580000  0.000000  0.000000
  0.590000  0.000000  0.000000
  0.600000  0.000000  0.000000
  0.610000  0.000000  0.000000
  0.620000  0.000000  0.000000
  0.630000  0.000000  0.000000
  0.640000  0.000000  0.000000
  0.650000  0.000000  0.000000
  0.660000  0.000000  0.000000
  0.670000  0.000000  0.000000
  0.680000  0.000000  0.000000
  0.690000  0.000000  0.000000
  0.700000  0.000000  0.000000
  0.710000  0.000000  0.000000
  0.720000  0.000000  0.000000
  0.730000  0.000000  0.000000
  0.740000  0.000000  0.000000
  0.750000  0.000000  0.000000
  0.760000  0.000000  0.000000
  0.770000  0.000000  0.000000
  0.780000  0.000000  0.000000
  0.790000  0.000000  0.000000
  0.800000  0.000000  0.000000
  0.700000  0.010000  0.000000
  0.700000  0.020000  0.000000
  0.700000  0.030000  0.000000
  0.700000  0.040000  0.000000
  0.700000  0.050000  0.000000
  0.700000  0.060000  0.000000
  0.700000  0.070000  0.000000
  0.700000  0.080000  0.000000
  0.700000  0.090000  0.000000
  0.700000  0.100000  0.000000
  0.700000  0.110000  0.000000
  0.700000  0.120000  0.000000
  0.700000  0.130000  0.000000
  0.700000  0.140000  0.000000
  0.700000  0.150000  0.000000
  0.700000  0.160000  0.000000
  0.700000  0.170000  0.000000
  0.700000  0.180000  0.000000
  0.700000  0.190000  0.000000
  0.700000  0.200000  0.000000
  0.700000  0.210000  0.000000
  0.700000  0.220000  0.000000
  0.700000  0.230000  0.000000
  0.700000  0.240000  0.000000
  0.700000  0.250000  0.000000
  0.700000  0.260000  0.000000
  0.700000  0.270000  0.000000
  0.700000  0.280000  0.000000
  0.700000  0.290000  0.000000
  0.700000  0.300000  0.000000
  0.700000  0.310000  0.000000
  0.700000  0.320000  0.000000
  0.700000  0.330000  0.000000
  0.700000  0.340000  0.000000
  0.700000  0.350000  0.000000
  0.700000  0.360000  0.000000
  0.700000  0.370000  0.000000
  0.700000  0.380000  0.000000
  0.700000  0.390000  0.000000
  0.700000  0.400000  0.000000
  0.700000  0.410000  0.000000
  0.700000  0.420000  0.000000
  0.700000  0.430000  0.000000
  0.700000  0.440000  0.000000
  0.700000  0.450000  0.000000
  0.700000  0.460000  0.000000
  0.700000  0.470000  0.000000
  0.700000  0.480000  0.000000
  0.700000  0.490000  0.000000
  0.700000  0.500000  0.000000
  0.020160  0.010150  0.000000
  0.020723  0.020464  0.000000
  0.035799  0.014475  0.000000
  0.010245  0.010085  0.000000
  0.034997  0.022702  0.000000
  0.010137  0.019173  0.000000
  0.039574  0.030387  0.000000
  0.045944  0.017716  0.000000
  0.066060  0.025867  0.000000
  0.044779  0.033557  0.000000
  0.052873  0.036938  0.000000
  0.008687  0.030280  0.000000
  0.012794  0.041297  0.000000
  0.010223  0.045850  0.000000
  0.009916  0.057470  0.000000
  0.023625  0.052928  0.000000
  0.040234  0.058649  0.000000
  0.012689  0.061854  0.000000
  0.028858  0.077059  0.000000
  0.008914  0.073798  0.000000
  0.016973  0.072726  0.000000
  0.011122  0.084062  0.000000
  0.009279  0.093152  0.000000
  0.016658  0.103530  0.000000
  0.009485  0.104152  0.000000
  0.023692  0.109165  0.000000
  0.009580  0.118087  0.000000
  0.020654  0.120632  0.000000
  0.017219  0.118631  0.000000
  0.030661  0.120205  0.000000
  0.045425  0.008194  0.000000
  0.029566  0.009709  0.000000
  0.058115  0.009388  0.000000
  0.054064  0.019746  0.000000
  0.071994  0.009997  0.000000
  0.077593  0.020063  0.000000
  0.093713  0.013828  0.000000
  0.065385  0.013514  0.000000
  0.062938  0.040262  0.000000
  0.055344  0.026568  0.000000
  0.044508  0.048852  0.000000
  0.024550  0.027306  0.000000
  0.063837  0.043795  0.000000
  0.030859  0.037099  0.000000
  0.054841  0.057326  0.000000
  0.023673  0.044622  0.000000
  0.018019  0.031054  0.000000
  0.034867  0.054925  0.000000
  0.051617  0.059642  0.000000
  0.024842  0.061231  0.000000
  0.052377  0.074160  0.000000
  0.038981  0.070054  0.000000
  0.021747  0.081919  0.000000
  0.037234  0.083087  0.000000
  0.021730  0.091515  0.000000
  0.035913  0.099517  0.000000
  0.023837  0.095287  0.000000
  0.036855  0.099030  0.000000
  0.033459  0.110541  0.000000
  0.044116  0.114117  0.000000
  0.108106  0.011724  0.000000
  0.083460  0.008458  0.000000
  0.099021  0.009642  0.000000
  0.084320  0.019201  0.000000
  0.106061  0.022578  0.000000
  0.126597  0.013629  0.000000
  0.141648  0.020444  0.000000
  0.110710  0.036974  0.000000
  0.091676  0.044572  0.000000
  0.069645  0.028130  0.000000
  0.095337  0.032453  0.000000
  0.094197  0.024556  0.000000
  0.071486  0.050338  0.000000
  0.076545  0.067915  0.000000
  0.089550  0.059532  0.000000
  0.032469  0.043044  0.000000
  0.064354  0.059528  0.000000
  0.049997  0.045966  0.000000
  0.044505  0.072395  0.000000
  0.027421  0.067854  0.000000
  0.063552  0.068644  0.000000
  0.061395  0.081105  0.000000
  0.051636  0.084065  0.000000
  0.040299  0.085186  0.000000
  0.057346  0.093006  0.000000
  0.048032  0.095602  0.000000
  0.051523  0.101704  0.000000
  0.058700  0.109264  0.000000
  0.053072  0.112807  0.000000
  0.043506  0.119482  0.000000
  0.147361  0.008839  0.000000
  0.117544  0.008855  0.000000
  0.148251  0.015118  0.000000
  0.115947  0.019353  0.000000
  0.138486  0.038768  0.000000
  0.132776  0.008936  0.000000
  0.138680  0.031639  0.000000
  0.134678  0.020398  0.000000
  0.121947  0.040776  0.000000
  0.083873  0.030331  0.000000
  0.129682  0.039641  0.000000
  0.081427  0.039372  0.000000
  0.112176  0.044664  0.000000
  0.076030  0.037988  0.000000
  0.073217  0.056297  0.000000
  0.106952  0.028693  0.000000
  0.084312  0.050406  0.000000
  0.097308  0.052517  0.000000
  0.083691  0.062756  0.000000
  0.080332  0.076203  0.000000
  0.101230  0.070998  0.000000
  0.068061  0.073484  0.000000
  0.064963  0.088505  0.000000
  0.088319  0.078127  0.000000
  0.075840  0.087394  0.000000
  0.068408  0.100303  0.000000
  0.078514  0.102922  0.000000
  0.070594  0.104556  0.000000
  0.067618  0.118178  0.000000
  0.075631  0.115106  0.000000
  0.176029  0.008667  0.000000
  0.160905  0.008923  0.000000
  0.173897  0.014735  0.000000
  0.161657  0.016053  0.000000
  0.198478  0.010455  0.000000
  0.156874  0.025544  0.000000
  0.148674  0.030216  0.000000
  0.165744  0.023658  0.000000
  0.123793  0.025475  0.000000
  0.166343  0.035705  0.000000
  0.123103  0.030013  0.000000
  0.153928  0.035879  0.000000
  0.146074  0.046295  0.000000
  0.132312  0.052143  0.000000
  0.141008  0.064908  0.000000
  0.098869  0.039843  0.000000
  0.126969  0.051633  0.000000
  0.109028  0.049503  0.000000
  0.117464  0.072888  0.000000
  0.101996  0.058512  0.000000
  0.093526  0.072094  0.000000
  0.105903  0.067032  0.000000
  0.097407  0.084722  0.000000
  0.077432  0.086930  0.000000
  0.098955  0.088194  0.000000
  0.088127  0.097014  0.000000
  0.091458  0.093963  0.000000
  0.094295  0.108586  0.000000
  0.088547  0.107595  0.000000
  0.085173  0.118192  0.000000
  0.207344  0.012146  0.000000
  0.189440  0.009879  0.000000
  0.227799  0.021908  0.000000
  0.202388  0.022041  0.000000
  0.247019  0.011621  0.000000
  0.209190  0.030444  0.000000
  0.225047  0.011361  0.000000
  0.185854  0.017710  0.000000
  0.194542  0.022917  0.000000
  0.217878  0.029717  0.000000
  0.188260  0.031567  0.000000
  0.197841  0.034644  0.000000
  0.180227  0.024586  0.000000
  0.156343  0.044721  0.000000
  0.145420  0.051899  0.000000
  0.151910  0.057880  0.000000
  0.118300  0.059142  0.000000
  0.165553  0.056256  0.000000
  0.116628  0.061332  0.000000
  0.135211  0.061162  0.000000
  0.127616  0.068092  0.000000
  0.132527  0.074562  0.000000
  0.111409  0.079856  0.000000
  0.121499  0.080766  0.000000
  0.119539  0.093217  0.000000
  0.112060  0.086545  0.000000
  0.110561  0.098975  0.000000
  0.108853  0.101882  0.000000
  0.102759  0.107226  0.000000
  0.107701  0.114951  0.000000
  0.263525  0.010566  0.000000
  0.218680  0.012686  0.000000
  0.235398  0.010860  0.000000
  0.212757  0.018949  0.000000
  0.293238  0.025481  0.000000
  0.253143  0.012852  0.000000
  0.268799  0.015284  0.000000
  0.239507  0.017440  0.000000
  0.234334  0.025295  0.000000
  0.233315  0.033551  0.000000
  0.220380  0.034342  0.000000
  0.230387  0.043635  0.000000
  0.200058  0.039404  0.000000
  0.173633  0.029888  0.000000
  0.180139  0.038753  0.000000
  0.164966  0.044236  0.000000
  0.169592  0.052617  0.000000
  0.183641  0.054410  0.000000
  0.159324  0.064034  0.000000
  0.151753  0.067664  0.000000
  0.166000  0.070442  0.000000
  0.145539  0.076783  0.000000
  0.136323  0.080605  0.000000
  0.144429  0.087983  0.000000
  0.129396  0.090125  0.000000
  0.140642  0.092890  0.000000
  0.131321  0.102338  0.000000
  0.126892  0.097660  0.000000
  0.124896  0.113708  0.000000
  0.118379  0.112912  0.000000
  0.282965  0.016854  0.000000
  0.275948  0.011925  0.000000
  0.330372  0.025043  0.000000
  0.287607  0.010613  0.000000
  0.340490  0.024698  0.000000
  0.307908  0.012306  0.000000
  0.308336  0.027917  0.000000
  0.285234  0.026576  0.000000
  0.297981  0.011164  0.000000
  0.273578  0.026107  0.000000
  0.258266  0.022640  0.000000
  0.250960  0.025423  0.000000
  0.250505  0.031160  0.000000
  0.211887  0.044474  0.000000
  0.222209  0.054753  0.000000
  0.190293  0.044387  0.000000
  0.178401  0.043813  0.000000
  0.207026  0.049425  0.000000
  0.189849  0.055415  0.000000
  0.200779  0.052517  0.000000
  0.176784  0.068460  0.000000
  0.177650  0.061292  0.000000
  0.178886  0.075122  0.000000
  0.155910  0.077422  0.000000
  0.165210  0.080169  0.000000
  0.160496  0.087419  0.000000
  0.157515  0.090654  0.000000
  0.148129  0.099164  0.000000
  0.147096  0.110356  0.000000
  0.147207  0.104995  0.000000
  0.344034  0.009779  0.000000
  0.327127  0.012264  0.000000
  0.353549  0.013065  0.000000
  0.331412  0.013661  0.000000
  0.366223  0.018726  0.000000
  0.342593  0.017674  0.000000
  0.356700  0.029594  0.000000
  0.314822  0.019551  0.000000
  0.317332  0.010880  0.000000
  0.314189  0.031961  0.000000
  0.280058  0.036739  0.000000
  0.283888  0.038961  0.000000
  0.268021  0.048014  0.000000
  0.266974  0.029030  0.000000
  0.256962  0.038411  0.000000
  0.220249  0.044640  0.000000
  0.239799  0.038425  0.000000
  0.234631  0.051672  0.000000
  0.237669  0.059426  0.000000
  0.218508  0.060239  0.000000
  0.206887  0.064177  0.000000
  0.197490  0.061709  0.000000
  0.197105  0.071261  0.000000
  0.189021  0.070701  0.000000
  0.193170  0.079717  0.000000
  0.179663  0.083414  0.000000
  0.176077  0.090324  0.000000
  0.168961  0.097559  0.000000
  0.169097  0.101807  0.000000
  0.161138  0.103424  0.000000
  0.417301  0.010498  0.000000
  0.362006  0.010467  0.000000
  0.423893  0.013853  0.000000
  0.390324  0.016157  0.000000
  0.435754  0.028238  0.000000
  0.395366  0.011193  0.000000
  0.425985  0.021914  0.000000
  0.373676  0.031521  0.000000
  0.344908  0.034045  0.000000
  0.322110  0.026851  0.000000
  0.328870  0.035568  0.000000
  0.317743  0.042729  0.000000
  0.269408  0.036705  0.000000
  0.299862  0.017624  0.000000
  0.300016  0.031707  0.000000
  0.295266  0.038284  0.000000
  0.263361  0.053075  0.000000
  0.254571  0.042896  0.000000
  0.254789  0.059048  0.000000
  0.243444  0.045191  0.000000
  0.249234  0.053407  0.000000
  0.226911  0.062964  0.000000
  0.237191  0.066492  0.000000
  0.211217  0.069733  0.000000
  0.218158  0.081985  0.000000
  0.207532  0.081097  0.000000
  0.203232  0.084567  0.000000
  0.194261  0.088757  0.000000
  0.184386  0.090739  0.000000
  0.186166  0.102164  0.000000
  0.454370  0.014872  0.000000
  0.417508  0.026518  0.000000
  0.494011  0.011062  0.000000
  0.441261  0.010394  0.000000
  0.479927  0.012896  0.000000
  0.432736  0.012467  0.000000
  0.458396  0.010302  0.000000
  0.442665  0.016759  0.000000
  0.409091  0.029112  0.000000
  0.385011  0.021167  0.000000
  0.404698  0.013534  0.000000
  0.355532  0.022522  0.000000
  0.361138  0.032201  0.000000
  0.363788  0.049045  0.000000
  0.352603  0.046223  0.000000
  0.316821  0.043746  0.000000
  0.302859  0.043920  0.000000
  0.293616  0.047984  0.000000
  0.292315  0.054851  0.000000
  0.281436  0.053968  0.000000
  0.277344  0.066423  0.000000
  0.263862  0.064174  0.000000
  0.249382  0.065693  0.000000
  0.250457  0.080064  0.000000
  0.217921  0.072538  0.000000
  0.231477  0.074874  0.000000
  0.226515  0.090968  0.000000
  0.207462  0.096601  0.000000
  0.209698  0.099635  0.000000
  0.196139  0.098462  0.000000
  0.552993  0.011127  0.000000
  0.514334  0.011197  0.000000
  0.555047  0.016465  0.000000
  0.531590  0.014594  0.000000
  0.540588  0.011181  0.000000
  0.512184  0.012573  0.000000
  0.495382  0.012267  0.000000
  0.464844  0.016563  0.000000
  0.473116  0.010356  0.000000
  0.455049  0.029249  0.000000
  0.441598  0.032730  0.000000
  0.408994  0.013465  0.000000
  0.401883  0.027614  0.000000
  0.388550  0.034562  0.000000
  0.375732  0.022306  0.000000
  0.365302  0.041858  0.000000
  0.349604  0.050837  0.000000
  0.341414  0.036095  0.000000
  0.345384  0.054340  0.000000
  0.330452  0.050341  0.000000
  0.307124  0.051964  0.000000
  0.317973  0.057748  0.000000
  0.274389  0.050290  0.000000
  0.286034  0.060389  0.000000
  0.269441  0.067774  0.000000
  0.252871  0.073093  0.000000
  0.241415  0.092423  0.000000
  0.242256  0.077310  0.000000
  0.228937  0.084867  0.000000
  0.217676  0.093288  0.000000
  0.642297  0.012440  0.000000
  0.607080  0.024664  0.000000
  0.610277  0.011066  0.000000
  0.587247  0.012097  0.000000
  0.600881  0.016035  0.000000
  0.564165  0.011336  0.000000
  0.536178  0.025303  0.000000
  0.544099  0.020277  0.000000
  0.526784  0.011668  0.000000
  0.498603  0.022723  0.000000
  0.478619  0.020340  0.000000
  0.461659  0.025602  0.000000
  0.446645  0.025210  0.000000
  0.459816  0.041726  0.000000
  0.409586  0.036505  0.000000
  0.414111  0.046422  0.000000
  0.394148  0.029384  0.000000
  0.381366  0.011144  0.000000
  0.372363  0.011668  0.000000
  0.402905  0.045227  0.000000
  0.374136  0.039552  0.000000
  0.356255  0.063838  0.000000
  0.335986  0.044420  0.000000
  0.306392  0.058616  0.000000
  0.301400  0.066388  0.000000
  0.283984  0.071104  0.000000
  0.271017  0.078771  0.000000
  0.262094  0.078659  0.000000
  0.254765  0.091692  0.000000
  0.241773  0.092173  0.000000
  0.670017  0.021871  0.000000
  0.641092  0.023357  0.000000
  0.650418  0.012702  0.000000
  0.634274  0.011733  0.000000
  0.647667  0.057872  0.000000
  0.615356  0.012210  0.000000
  0.590189  0.025316  0.000000
  0.601209  0.030435  0.000000
  0.560427  0.026726  0.000000
  0.592230  0.031586  0.000000
  0.574146  0.024914  0.000000
  0.530107  0.026990  0.000000
  0.506408  0.023448  0.000000
  0.525759  0.044402  0.000000
  0.491274  0.023824  0.000000
  0.475694  0.026042  0.000000
  0.479426  0.047878  0.000000
  0.436464  0.041710  0.000000
  0.444441  0.043370  0.000000
  0.422641  0.032995  0.000000
  0.396866  0.044825  0.000000
  0.382561  0.036868  0.000000
  0.382772  0.053804  0.000000
  0.345562  0.067626  0.000000
  0.335806  0.059906  0.000000
  0.321352  0.069822  0.000000
  0.298328  0.069594  0.000000
  0.289683  0.082838  0.000000
  0.273946  0.086224  0.000000
  0.264316  0.087357  0.000000
  0.679561  0.018082  0.000000
  0.684036  0.052537  0.000000
  0.676247  0.037064  0.000000
  0.676427  0.029907  0.000000
  0.669169  0.050175  0.000000
  0.658357  0.013057  0.000000
  0.626898  0.011160  0.000000
  0.637300  0.044245  0.000000
  0.608845  0.034662  0.000000
  0.620325  0.020713  0.000000
  0.617050  0.036888  0.000000
  0.580671  0.011112  0.000000
  0.596258  0.013700  0.000000
  0.580732  0.021434  0.000000
  0.519344  0.021515  0.000000
  0.542630  0.037273  0.000000
  0.521387  0.032305  0.000000
  0.490328  0.033021  0.000000
  0.490060  0.042213  0.000000
  0.469536  0.032784  0.000000
  0.458454  0.038804  0.000000
  0.427431  0.038414  0.000000
  0.410067  0.061348  0.000000
  0.393232  0.048131  0.000000
  0.365102  0.055839  0.000000
  0.368097  0.063412  0.000000
  0.327869  0.056042  0.000000
  0.317339  0.064818  0.000000
  0.301389  0.079912  0.000000
  0.284920  0.079011  0.000000
  0.689653  0.030442  0.000000
  0.686673  0.012247  0.000000
  0.691357  0.067899  0.000000
  0.686797  0.119319  0.000000
  0.675541  0.010088  0.000000
  0.665144  0.010935  0.000000
  0.672184  0.059963  0.000000
  0.668158  0.066356  0.000000
  0.655088  0.021784  0.000000
  0.663497  0.027694  0.000000
  0.661338  0.047771  0.000000
  0.649009  0.032352  0.000000
  0.633435  0.035149  0.000000
  0.651093  0.043681  0.000000
  0.622084  0.044963  0.000000
  0.589874  0.044070  0.000000
  0.578816  0.040011  0.000000
  0.570270  0.014328  0.000000
  0.550024  0.030433  0.000000
  0.523204  0.047752  0.000000
  0.516208  0.031331  0.000000
  0.481695  0.035650  0.000000
  0.454656  0.051252  0.000000
  0.455585  0.065234  0.000000
  0.424068  0.047311  0.000000
  0.398945  0.060687  0.000000
  0.379097  0.051225  0.000000
  0.354639  0.076568  0.000000
  0.337857  0.071858  0.000000
  0.305708  0.076983  0.000000
  0.682215  0.111260  0.000000
  0.666365  0.164259  0.000000
  0.689998  0.047234  0.000000
  0.686610  0.077530  0.000000
  0.633983  0.198040  0.000000
  0.684605  0.070952  0.000000
  0.687946  0.094755  0.000000
  0.673763  0.110778  0.000000
  0.688568  0.155047  0.000000
  0.675634  0.088000  0.000000
  0.665398  0.035168  0.000000
  0.676055  0.045598  0.000000
  0.661938  0.067721  0.000000
  0.652138  0.068350  0.000000
  0.654400  0.036299  0.000000
  0.659311  0.056251  0.000000
  0.629100  0.041454  0.000000
  0.618810  0.028923  0.000000
  0.599308  0.045508  0.000000
  0.576428  0.033255  0.000000
  0.547102  0.047519  0.000000
  0.534409  0.038711  0.000000
  0.506202  0.035683  0.000000
  0.505011  0.054610  0.000000
  0.451397  0.052015  0.000000
  0.437741  0.058179  0.000000
  0.417108  0.051101  0.000000
  0.395895  0.065305  0.000000
  0.359014  0.068593  0.000000
  0.330675  0.074739  0.000000
  0.688239  0.089212  0.000000
  0.631848  0.257407  0.000000
  0.687975  0.145496  0.000000
  0.684532  0.056652  0.000000
  0.688311  0.136466  0.000000
  0.687812  0.033992  0.000000
  0.689379  0.017299  0.000000
  0.689685  0.119321  0.000000
  0.666324  0.139282  0.000000
  0.683118  0.170598  0.000000
  0.665111  0.142103  0.000000
  0.671964  0.081224  0.000000
  0.665424  0.117328  0.000000
  0.668169  0.128473  0.000000
  0.676284  0.073836  0.000000
  0.665514  0.089057  0.000000
  0.661301  0.082230  0.000000
  0.652674  0.078450  0.000000
  0.639450  0.029178  0.000000
  0.632266  0.054649  0.000000
  0.614198  0.056602  0.000000
  0.606714  0.054441  0.000000
  0.559106  0.046462  0.000000
  0.561082  0.028009  0.000000
  0.517074  0.049436  0.000000
  0.499909  0.038907  0.000000
  0.468772  0.054242  0.000000
  0.436181  0.051770  0.000000
  0.389897  0.062432  0.000000
  0.376212  0.066277  0.000000
  0.627387  0.249763  0.000000
  0.674888  0.215856  0.000000
  0.689067  0.103796  0.000000
  0.602976  0.352441  0.000000
  0.676938  0.305599  0.000000
  0.615112  0.270070  0.000000
  0.666475  0.309789  0.000000
  0.669637  0.172660  0.000000
  0.670612  0.222915  0.000000
  0.661799  0.257788  0.000000
  0.662234  0.197973  0.000000
  0.681456  0.177499  0.000000
  0.685171  0.196121  0.000000
  0.651380  0.167266  0.000000
  0.667456  0.098339  0.000000
  0.680191  0.151609  0.000000
  0.679460  0.099583  0.000000
  0.672536  0.152837  0.000000
  0.653806  0.102948  0.000000
  0.648704  0.099644  0.000000
  0.638009  0.065102  0.000000
  0.628972  0.022167  0.000000
  0.648940  0.052042  0.000000
  0.567047  0.050702  0.000000
  0.571878  0.041028  0.000000
  0.554407  0.039078  0.000000
  0.507707  0.044801  0.000000
  0.474775  0.042055  0.000000
  0.427481  0.064657  0.000000
  0.419656  0.061317  0.000000
  0.558049  0.389831  0.000000
  0.641658  0.234523  0.000000
  0.535423  0.361043  0.000000
  0.516574  0.413392  0.000000
  0.597157  0.390063  0.000000
  0.645841  0.274567  0.000000
  0.669731  0.295598  0.000000
  0.677642  0.346822  0.000000
  0.674105  0.268308  0.000000
  0.655367  0.372328  0.000000
  0.630654  0.250933  0.000000
  0.664461  0.239940  0.000000
  0.680313  0.249034  0.000000
  0.680558  0.219597  0.000000
  0.657443  0.178952  0.000000
  0.687201  0.196234  0.000000
  0.653341  0.142134  0.000000
  0.651662  0.126413  0.000000
  0.665305  0.122705  0.000000
  0.666978  0.107950  0.000000
  0.652168  0.092020  0.000000
  0.650895  0.076512  0.000000
  0.634798  0.055884  0.000000
  0.611829  0.048542  0.000000
  0.588048  0.045658  0.000000
  0.536924  0.051825  0.000000
  0.490693  0.056532  0.000000
  0.493483  0.051507  0.000000
  0.444076  0.061608  0.000000
 -0.010000  0.500000  0.000000
 -0.010000  0.490000  0.000000
 -0.010000  0.480000  0.000000
 -0.010000  0.470000  0.000000
 -0.010000  0.460000  0.000000
 -0.010000  0.450000  0.000000
 -0.010000  0.440000  0.000000
 -0.010000  0.430000  0.000000
 -0.010000  0.420000  0.000000
 -0.010000  0.410000  0.000000
 -0.010000  0.400000  0.000000
 -0.010000  0.390000  0.000000
 -0.010000  0.380000  0.000000
 -0.010000  0.370000  0.000000
 -0.010000  0.360000  0.000000
 -0.010000  0.350000  0.000000
 -0.010000  0.340000  0.000000
 -0.010000  0.330000  0.000000
 -0.010000  0.320000  0.000000
 -0.010000  0.310000  0.000000
 -0.010000  0.300000  0.000000
 -0.010000  0.290000  0.000000
 -0.010000  0.280000  0.000000
 -0.010000  0.270000  0.000000
 -0.010000  0.260000  0.000000
 -0.010000  0.250000  0.000000
 -0.010000  0.240000  0.000000
 -0.010000  0.230000  0.000000
 -0.010000  0.220000  0.000000
 -0.010000  0.210000  0.000000
 -0.010000  0.200000  0.000000
 -0.010000  0.190000  0.000000
 -0.010000  0.180000  0.000000
 -0.010000  0.170000  0.000000
 -0.010000  0.160000  0.000000
 -0.010000  0.150000  0.000000
 -0.010000  0.140000  0.000000
 -0.010000  0.130000  0.000000
 -0.010000  0.120000  0.000000
 -0.010000  0.110000  0.000000
 -0.010000  0.100000  0.000000
 -0.010000  0.090000  0.000000
 -0.010000  0.080000  0.000000
 -0.010000  0.070000  0.000000
 -0.010000  0.060000  0.000000
 -0.010000  0.050000  0.000000
 -0.010000  0.040000  0.000000
 -0.010000  0.030000  0.000000
 -0.010000  0.020000  0.000000
 -0.010000  0.010000  0.000000
 -0.100000 -0.010000  0.000000
 -0.090000 -0.010000  0.000000
 -0.080000 -0.010000  0.000000
 -0.070000 -0.010000  0.000000
 -0.060000 -0.010000  0.000000
 -0.050000 -0.010000  0.000000
 -0.040000 -0.010000  0.000000
 -0.030000 -0.010000  0.000000
 -0.020000 -0.010000  0.000000