<?xml version="1.0" encoding="UTF-8"?>
<VTKFile type="UnstructuredGrid" version="1.0" byte_order="LittleEndian">
<UnstructuredGrid>
  <Piece NumberOfPoints="1555" NumberOfCells="1555">
      <PointData>
        <DataArray type="Int32" Name="Type" format="ascii">
 1 1 1 1 1 1 1 1 1 1
 1 1 1 1 1 1 1 1 1 1
 1 1 1 1 1 1 1 1 1 1
 1 1 1 1 1 1 1 1 1 1
 1 1 1 1 1 1 1 1 1 1
 1 1 1 1 1 1 1 1 1 1
 1 3 3 3 3 3 3 3 3 3
 3 3 3 3 3 3 3 3 3 3
 3 3 3 3 3 3 3 3 3 3
 3 3 3 3 3 3 3 3 3 3
 3 3 3 3 3 3 3 3 3 3
 3 3 3 3 3 3 3 3 3 3
 3 3 3 3 3 3 3 3 3 3
 1 1 1 1 1 1 1 1 1 1
 1 1 1 1 1 1 1 1 1 1
 1 1 1 1 1 1 1 1 1 1
 1 1 1 1 1 1 1 1 1 1
 1 1 1 1 1 1 1 1 1 1
 1 1 1 1 1 1 1 1 1 1
 1 2 2 2 2 2 2 2 2 2
 2 2 2 2 2 2 2 2 2 2
 2 2 2 2 2 2 2 2 2 2
 2 2 2 2 2 2 2 2 2 2
 2 2 2 2 2 2 2 2 2 2
 2 2 2 2 2 2 2 2 2 2
 2 2 2 2 2 2 2 2 2 2
 2 2 2 2 2 2 2 2 2 2
 2 2 2 2 2 2 2 2 2 2
 2 2 2 2 2 2 2 2 2 2
 2 2 2 2 2 2 2 2 2 2
 2 2 2 2 2 2 2 2 2 2
 2 2 2 2 2 2 2 2 2 2
 2 2 2 2 2 2 2 2 2 2
 2 2 2 2 2 2 2 2 2 2
 2 2 2 2 2 2 2 2 2 2
 2 2 2 2 2 2 2 2 2 2
 2 2 2 2 2 2 2 2 2 2
 2 2 2 2 2 2 2 2 2 2
 2 2 2 2 2 2 2 2 2 2
 2 2 2 2 2 2 2 2 2 2
 2 2 2 2 2 2 2 2 2 2
 2 2 2 2 2 2 2 2 2 2
 2 2 2 2 2 2 2 2 2 2
 2 2 2 2 2 2 2 2 2 2
 2 2 2 2 2 2 2 2 2 2
 2 2 2 2 2 2 2 2 2 2
 2 2 2 2 2 2 2 2 2 2
 2 2 2 2 2 2 2 2 2 2
 2 2 2 2 2 2 2 2 2 2
 2 2 2 2 2 2 2 2 2 2
 2 2 2 2 2 2 2 2 2 2
 2 2 2 2 2 2 2 2 2 2
 2 2 2 2 2 2 2 2 2 2
 2 2 2 2 2 2 2 2 2 2
 2 2 2 2 2 2 2 2 2 2
 2 2 2 2 2 2 2 2 2 2
 2 2 2 2 2 2 2 2 2 2
 2 2 2 2 2 2 2 2 2 2
 2 2 2 2 2 2 2 2 2 2
 2 2 2 2 2 2 2 2 2 2
 2 2 2 2 2 2 2 2 2 2
 2 2 2 2 2 2 2 2 2 2
 2 2 2 2 2 2 2 2 2 2
 2 2 2 2 2 2 2 2 2 2
 2 2 2 2 2 2 2 2 2 2
 2 2 2 2 2 2 2 2 2 2
 2 2 2 2 2 2 2 2 2 2
 2 2 2 2 2 2 2 2 2 2
 2 2 2 2 2 2 2 2 2 2
 2 2 2 2 2 2 2 2 2 2
 2 2 2 2 2 2 2 2 2 2
 2 2 2 2 2 2 2 2 2 2
 2 2 2 2 2 2 2 2 2 2
 2 2 2 2 2 2 2 2 2 2
 2 2 2 2 2 2 2 2 2 2
 2 2 2 2 2 2 2 2 2 2
 2 2 2 2 2 2 2 2 2 2
 2 2 2 2 2 2 2 2 2 2
 2 2 2 2 2 2 2 2 2 2
 2 0 0 0 0 0 0 0 0 0
 0 0 0 0 0 0 0 0 0 0
 0 0 0 0 0 0 0 0 0 0
 0 0 0 0 0 0 0 0 0 0
 0 0 0 0 0 0 0 0 0 0
 0 0 0 0 0 0 0 0 0 0
 0 0 0 0 0 0 0 0 0 0
 0 0 0 0 0 0 0 0 0 0
 0 0 0 0 0 0 0 0 0 0
 0 0 0 0 0 0 0 0 0 0
 0 0 0 0 0 0 0 0 0 0
 0 0 0 0 0 0 0 0 0 0
 0 0 0 0 0 0 0 0 0 0
 0 0 0 0 0 0 0 0 0 0
 0 0 0 0 0 0 0 0 0 0
 0 0 0 0 0 0 0 0 0 0
 0 0 0 0 0 0 0 0 0 0
 0 0 0 0 0 0 0 0 0 0
 0 0 0 0 0 0 0 0 0 0
 0 0 0 0 0 0 0 0 0 0
 0 0 0 0 0 0 0 0 0 0
 0 0 0 0 0 0 0 0 0 0
 0 0 0 0 0 0 0 0 0 0
 0 0 0 0 0 0 0 0 0 0
 0 0 0 0 0 0 0 0 0 0
 0 0 0 0 0 0 0 0 0 0
 0 0 0 0 0 0 0 0 0 0
 0 0 0 0 0 0 0 0 0 0
 0 0 0 0 0 0 0 0 0 0
 0 0 0 0 0 0 0 0 0 0
 0 0 0 0 0 0 0 0 0 0
 0 0 0 0 0 0 0 0 0 0
 0 0 0 0 0 0 0 0 0 0
 0 0 0 0 0 0 0 0 0 0
 0 0 0 0 0 0 0 0 0 0
 0 0 0 0 0 0 0 0 0 0
 0 0 0 0 0 0 0 0 0 0
 0 0 0 0 0 0 0 0 0 0
 0 0 0 0 0 0 0 0 0 0
 0 0 0 0 0 0 0 0 0 0
 0 0 0 0 0 0 0 0 0 0
 0 0 0 0 0 0 0 0 0 0
 0 0 0 0 0 0 0 0 0 0
 0 0 0 0 0 0 0 0 0 0
 0 0 0 0 0 0 0 0 0 0
 0 0 0 0 0 0 0 0 0 0
 0 0 0 0 0 0 0 0 0 0
 0 0 0 0 0 0 0 0 0 0
 0 0 0 0 0 0 0 0 0 0
 0 0 0 0 0 0 0 0 0 0
 0 0 0 0 0 0 0 0 0 0
 0 0 0 0 0 0 0 0 0 0
 0 0 0 0 0 0 0 0 0 0
 0 0 0 0 0 0 0 0 0 0
 0 0 0 0 0 0 0 0 0 0
 0 0 0 0 0 0 0 0 0 0
 0 0 0 0 0 0 0 0 0 0
 0 0 0 0 0 0 0 0 0 0
 0 0 0 0 0 0 0 0 0 0
 0 0 0 0 0 0 0 0 0 0
 0 0 0 0 0 0 0 0 0 0
 0 0 0 0 0 0 0 0 0 0
 0 0 0 0 0 0 0 0 0 0
 0 0 0 0 0 0 0 0 0 0
 0 0 0 0 0 0 0 0 0 0
 0 0 0 0 0 0 0 0 0 0
 0 0 0 0 0 0 0 0 0 0
 0 0 0 0 0 0 0 0 0 0
 0 0 0 0 0 0 0 0 0 0
 0 0 0 0 0 0 0 0 0 0
 0 0 0 0 0 0 0 0 0 0
 0 0 0 0 0 0 0 0 0 0
 0 0 0 0 0 0 0 0 0 0
 0 0 0 0 0 0 0 0 0 0
 0 0 0 0 0 0 0 0 0 0
 0 0 0 0 0 0 0 0 0 0
 0 0 0 0 0
        </DataArray>
      </PointData>
      <Points>
        <DataArray type="Float32" NumberOfComponents="3" format="ascii">
  0.000000  0.500000  0.000000
  0.000000  0.490000  0.000000
  0.000000  0.480000  0.000000
  0.000000  0.470000  0.000000
  0.000000  0.460000  0.000000
  0.000000  0.450000  0.000000
  0.000000  0.440000  0.000000
  0.000000  0.430000  0.000000
  0.000000  0.420000  0.000000
  0.000000  0.410000  0.000000
  0.000000  0.400000  0.000000
  0.000000  0.390000  0.000000
  0.000000  0.380000  0.000000
  0.000000  0.370000  0.000000
  0.000000  0.360000  0.000000
  0.000000  0.350000  0.000000
  0.000000  0.340000  0.000000
  0.000000  0.330000  0.000000
  0.000000  0.320000  0.000000
  0.000000  0.310000  0.000000
  0.000000  0.300000  0.000000
  0.000000  0.290000  0.000000
  0.000000  0.280000  0.000000
  0.000000  0.270000  0.000000
  0.000000  0.260000  0.000000
  0.000000  0.250000  0.000000
  0.000000  0.240000  0.000000
  0.000000  0.230000  0.000000
  0.000000  0.220000  0.000000
  0.000000  0.210000  0.000000
  0.000000  0.200000  0.000000
  0.000000  0.190000  0.000000
  0.000000  0.180000  0.000000
  0.000000  0.170000  0.000000
  0.000000  0.160000  0.000000
  0.000000  0.150000  0.000000
  0.000000  0.140000  0.000000
  0.000000  0.130000  0.000000
  0.000000  0.120000  0.000000
  0.000000  0.110000  0.000000
  0.000000  0.100000  0.000000
  0.000000  0.090000  0.000000
  0.000000  0.080000  0.000000
  0.000000  0.070000  0.000000
  0.000000  0.060000  0.000000
  0.000000  0.050000  0.000000
  0.000000  0.040000  0.000000
  0.000000  0.030000  0.000000
  0.000000  0.020000  0.000000
  0.000000  0.010000  0.000000
 -0.100000  0.000000  0.000000
 -0.090000  0.000000  0.000000
 -0.080000  0.000000  0.000000
 -0.070000  0.000000  0.000000
 -0.060000  0.000000  0.000000
 -0.050000  0.000000  0.000000
 -0.040000  0.000000  0.000000
 -0.030000  0.000000  0.000000
 -0.020000  0.000000  0.000000
 -0.010000  0.000000  0.000000
 -0.000000  0.000000  0.000000
  0.010000  0.000000  0.000000
  0.020000  0.000000  0.000000
  0.030000  0.000000  0.000000
  0.040000  0.000000  0.000000
  0.050000  0.000000  0.000000
  0.060000  0.000000  0.000000
  0.070000  0.000000  0.000000
  0.080000  0.000000  0.000000
  0.090000  0.000000  0.000000
  0.100000  0.000000  0.000000
  0.110000  0.000000  0.000000
  0.120000  0.000000  0.000000
  0.130000  0.000000  0.000000
  0.140000  0.000000  0.000000
  0.150000  0.000000  0.000000
  0.160000  0.000000  0.000000
  0.170000  0.000000  0.000000
  0.180000  0.000000  0.000000
  0.190000  0.000000  0.000000
  0.200000  0.000000  0.000000
  0.210000  0.000000  0.000000
  0.220000  0.000000  0.000000
  0.230000  0.000000  0.000000
  0.240000  0.000000  0.000000
  0.250000  0.000000  0.000000
  0.260000  0.000000  0.000000
  0.270000  0.000000  0.000000
  0.280000  0.000000  0.000000
  0.290000  0.000000  0.000000
  0.300000  0.000000  0.000000
  0.310000  0.000000  0.000000
  0.320000  0.000000  0.000000
  0.330000  0.000000  0.000000
  0.340000  0.000000  0.000000
  0.350000  0.000000  0.000000
  0.360000  0.000000  0.000000
  0.370000  0.000000  0.000000
  0.380000  0.000000  0.000000
  0.390000  0.000000  0.000000
  0.400000  0.000000  0.000000
  0.410000  0.000000  0.000000
  0.420000  0.000000  0.000000
  0.430000  0.000000  0.000000
  0.440000  0.000000  0.000000
  0.450000  0.000000  0.000000
  0.460000  0.000000  0.000000
  0.470000  0.000000  0.000000
  0.480000  0.000000  0.000000
  0.490000  0.000000  0.000000
  0.500000  0.000000  0.000000
  0.510000  0.000000  0.000000
  0.520000  0.000000  0.000000
  0.530000  0.000000  0.000000
  0.540000  0.000000  0.000000
  0.550000  0.000000  0.000000
  0.560000  0.000000  0.000000
  0.570000  0.000000  0.000000
  0.580000  0.000000  0.000000
  0.590000  0.000000  0.000000
  0.600000  0.000000  0.000000
  0.610000  0.000000  0.000000
  0.620000  0.000000  0.000000
  0.630000  0.000000  0.000000
  0.640000  0.000000  0.000000
  0.650000  0.000000  0.000000
  0.660000  0.000000  0.000000
  0.670000  0.000000  0.000000
  0.680000  0.000000  0.000000
  0.690000  0.000000  0.000000
  0.700000  0.000000  0.000000
  0.710000  0.000000  0.000000
  0.720000  0.000000  0.000000
  0.730000  0.000000  0.000000
  0.740000  0.000000  0.000000
  0.750000  0.000000  0.000000
  0.760000  0.000000  0.000000
  0.770000  0.000000  0.000000
  0.780000  0.000000  0.000000
  0.790000  0.000000  0.000000
  0.800000  0.000000  0.000000
  0.700000  0.010000  0.000000
  0.700000  0.020000  0.000000
  0.700000  0.030000  0.000000
  0.700000  0.040000  0.000000
  0.700000  0.050000  0.000000
  0.700000  0.060000  0.000000
  0.700000  0.070000  0.000000
  0.700000  0.080000  0.000000
  0.700000  0.090000  0.000000
  0.700000  0.100000  0.000000
  0.700000  0.110000  0.000000
  0.700000  0.120000  0.000000
  0.700000  0.130000  0.000000
  0.700000  0.140000  0.000000
  0.700000  0.150000  0.000000
  0.700000  0.160000  0.000000
  0.700000  0.170000  0.000000
  0.700000  0.180000  0.000000
  0.700000  0.190000  0.000000
  0.700000  0.200000  0.000000
  0.700000  0.210000  0.000000
  0.700000  0.220000  0.000000
  0.700000  0.230000  0.000000
  0.700000  0.240000  0.000000
  0.700000  0.250000  0.000000
  0.700000  0.260000  0.000000
  0.700000  0.270000  0.000000
  0.700000  0.280000  0.000000
  0.700000  0.290000  0.000000
  0.700000  0.300000  0.000000
  0.700000  0.310000  0.000000
  0.700000  0.320000  0.000000
  0.700000  0.330000  0.000000
  0.700000  0.340000  0.000000
  0.700000  0.350000  0.000000
  0.700000  0.360000  0.000000
  0.700000  0.370000  0.000000
  0.700000  0.380000  0.000000
  0.700000  0.390000  0.000000
  0.700000  0.400000  0.000000
  0.700000  0.410000  0.000000
  0.700000  0.420000  0.000000
  0.700000  0.430000  0.000000
  0.700000  0.440000  0.000000
  0.700000  0.450000  0.000000
  0.700000  0.460000  0.000000
  0.700000  0.470000  0.000000
  0.700000  0.480000  0.000000
  0.700000  0.490000  0.000000
  0.700000  0.500000  0.000000
  0.018238  0.011038  0.000000
  0.020941  0.018756  0.000000
  0.035157  0.014680  0.000000
  0.009433  0.009946  0.000000
  0.027649  0.023492  0.000000
  0.009974  0.022339  0.000000
  0.033843  0.028172  0.000000
  0.041868  0.022409  0.000000
  0.055966  0.028679  0.000000
  0.037589  0.035941  0.000000
  0.045022  0.040009  0.000000
  0.010709  0.028652  0.000000
  0.008429  0.042400  0.000000
  0.012217  0.049619  0.000000
  0.007871  0.061397  0.000000
  0.021383  0.058374  0.000000
  0.035607  0.064619  0.000000
  0.014142  0.068030  0.000000
  0.025640  0.083120  0.000000
  0.009000  0.077733  0.000000
  0.015396  0.080842  0.000000
  0.009493  0.091176  0.000000
  0.010165  0.100127  0.000000
  0.015029  0.110344  0.000000
  0.009447  0.114481  0.000000
  0.021056  0.119624  0.000000
  0.009356  0.126202  0.000000
  0.020159  0.131159  0.000000
  0.012905  0.132555  0.000000
  0.027575  0.129148  0.000000
  0.044025  0.009156  0.000000
  0.029245  0.008747  0.000000
  0.053150  0.010808  0.000000
  0.049214  0.020290  0.000000
  0.066130  0.008490  0.000000
  0.067739  0.022363  0.000000
  0.083950  0.018197  0.000000
  0.060737  0.015869  0.000000
  0.056831  0.043875  0.000000
  0.051426  0.032915  0.000000
  0.041322  0.048936  0.000000
  0.020830  0.033539  0.000000
  0.056518  0.048423  0.000000
  0.029581  0.041804  0.000000
  0.053015  0.061923  0.000000
  0.020630  0.051225  0.000000
  0.018629  0.038128  0.000000
  0.033154  0.060380  0.000000
  0.046128  0.066019  0.000000
  0.021806  0.068503  0.000000
  0.046303  0.080751  0.000000
  0.035122  0.080685  0.000000
  0.021540  0.091369  0.000000
  0.035788  0.093145  0.000000
  0.020169  0.097351  0.000000
  0.034776  0.105888  0.000000
  0.023460  0.106751  0.000000
  0.031944  0.112292  0.000000
  0.030702  0.119397  0.000000
  0.039011  0.127668  0.000000
  0.097770  0.009846  0.000000
  0.078099  0.009807  0.000000
  0.088555  0.010228  0.000000
  0.073572  0.019227  0.000000
  0.096809  0.023191  0.000000
  0.114484  0.014875  0.000000
  0.129071  0.022867  0.000000
  0.099743  0.037736  0.000000
  0.084742  0.046940  0.000000
  0.065317  0.032611  0.000000
  0.081786  0.036982  0.000000
  0.088665  0.027343  0.000000
  0.066087  0.052948  0.000000
  0.067979  0.069587  0.000000
  0.080611  0.062641  0.000000
  0.031884  0.049260  0.000000
  0.060330  0.066177  0.000000
  0.046961  0.054968  0.000000
  0.043860  0.075504  0.000000
  0.029010  0.074566  0.000000
  0.058019  0.076452  0.000000
  0.056821  0.086009  0.000000
  0.049053  0.092112  0.000000
  0.037994  0.094577  0.000000
  0.054695  0.101577  0.000000
  0.044578  0.104341  0.000000
  0.049136  0.111382  0.000000
  0.053090  0.117186  0.000000
  0.049276  0.122766  0.000000
  0.043052  0.130890  0.000000
  0.132553  0.009493  0.000000
  0.108428  0.009676  0.000000
  0.132364  0.017294  0.000000
  0.101806  0.019585  0.000000
  0.127636  0.038461  0.000000
  0.122122  0.009433  0.000000
  0.127130  0.033128  0.000000
  0.117829  0.023264  0.000000
  0.110090  0.043025  0.000000
  0.080394  0.030064  0.000000
  0.117621  0.044367  0.000000
  0.074036  0.044253  0.000000
  0.104106  0.049034  0.000000
  0.068650  0.037656  0.000000
  0.067872  0.058453  0.000000
  0.095942  0.036379  0.000000
  0.079173  0.053673  0.000000
  0.090230  0.061547  0.000000
  0.079217  0.069937  0.000000
  0.073496  0.080428  0.000000
  0.091348  0.080692  0.000000
  0.064897  0.082590  0.000000
  0.059549  0.096076  0.000000
  0.077406  0.086532  0.000000
  0.070328  0.097960  0.000000
  0.064648  0.106913  0.000000
  0.071324  0.111424  0.000000
  0.066002  0.116327  0.000000
  0.062551  0.127198  0.000000
  0.068135  0.126054  0.000000
  0.160670  0.008913  0.000000
  0.146306  0.008630  0.000000
  0.160779  0.015582  0.000000
  0.147223  0.015235  0.000000
  0.177605  0.014193  0.000000
  0.143528  0.022567  0.000000
  0.138109  0.031107  0.000000
  0.152199  0.025213  0.000000
  0.109339  0.027710  0.000000
  0.149777  0.037518  0.000000
  0.114044  0.031917  0.000000
  0.143082  0.036823  0.000000
  0.130518  0.048071  0.000000
  0.120344  0.054073  0.000000
  0.129771  0.067055  0.000000
  0.092862  0.048517  0.000000
  0.113825  0.056518  0.000000
  0.098148  0.056019  0.000000
  0.108861  0.078864  0.000000
  0.097687  0.066424  0.000000
  0.084967  0.075689  0.000000
  0.097200  0.076767  0.000000
  0.092574  0.091278  0.000000
  0.075411  0.094133  0.000000
  0.091107  0.095451  0.000000
  0.083099  0.105329  0.000000
  0.083147  0.104159  0.000000
  0.085283  0.117507  0.000000
  0.082090  0.119802  0.000000
  0.077917  0.128936  0.000000
  0.188308  0.008578  0.000000
  0.173878  0.009619  0.000000
  0.204325  0.021975  0.000000
  0.183792  0.021641  0.000000
  0.226410  0.014360  0.000000
  0.189889  0.029404  0.000000
  0.208391  0.012089  0.000000
  0.165310  0.021704  0.000000
  0.175688  0.025830  0.000000
  0.196742  0.032999  0.000000
  0.172878  0.035794  0.000000
  0.180905  0.035161  0.000000
  0.162998  0.029879  0.000000
  0.144151  0.050051  0.000000
  0.131825  0.052279  0.000000
  0.138128  0.060618  0.000000
  0.114143  0.064863  0.000000
  0.146980  0.062849  0.000000
  0.105544  0.067057  0.000000
  0.125861  0.069375  0.000000
  0.117249  0.074136  0.000000
  0.119478  0.083589  0.000000
  0.103189  0.086991  0.000000
  0.112664  0.088682  0.000000
  0.109440  0.100693  0.000000
  0.100963  0.098891  0.000000
  0.102190  0.108300  0.000000
  0.100873  0.112425  0.000000
  0.094461  0.120031  0.000000
  0.098002  0.124140  0.000000
  0.240285  0.012858  0.000000
  0.198176  0.011723  0.000000
  0.215836  0.010972  0.000000
  0.193543  0.017633  0.000000
  0.264411  0.026147  0.000000
  0.230693  0.011256  0.000000
  0.243348  0.018818  0.000000
  0.217273  0.020546  0.000000
  0.209990  0.026637  0.000000
  0.214447  0.035737  0.000000
  0.200861  0.035911  0.000000
  0.206993  0.045786  0.000000
  0.183276  0.043644  0.000000
  0.158993  0.036547  0.000000
  0.164965  0.045068  0.000000
  0.148223  0.048951  0.000000
  0.156149  0.056807  0.000000
  0.165290  0.060623  0.000000
  0.146353  0.069221  0.000000
  0.136497  0.074671  0.000000
  0.151514  0.077315  0.000000
  0.134858  0.082278  0.000000
  0.128634  0.087362  0.000000
  0.133163  0.094589  0.000000
  0.119363  0.096464  0.000000
  0.127227  0.101350  0.000000
  0.120872  0.109296  0.000000
  0.117017  0.108964  0.000000
  0.114463  0.119697  0.000000
  0.108757  0.124766  0.000000
  0.257035  0.014425  0.000000
  0.250126  0.010328  0.000000
  0.301268  0.023826  0.000000
  0.264801  0.011664  0.000000
  0.308685  0.026150  0.000000
  0.278145  0.010249  0.000000
  0.282684  0.029204  0.000000
  0.256721  0.025594  0.000000
  0.270918  0.015575  0.000000
  0.248335  0.027744  0.000000
  0.233093  0.025374  0.000000
  0.225994  0.028238  0.000000
  0.225200  0.034936  0.000000
  0.191688  0.046867  0.000000
  0.200024  0.057652  0.000000
  0.176387  0.050601  0.000000
  0.165375  0.048021  0.000000
  0.187129  0.053744  0.000000
  0.172283  0.062136  0.000000
  0.181528  0.060413  0.000000
  0.162042  0.073566  0.000000
  0.161075  0.069124  0.000000
  0.161808  0.084574  0.000000
  0.144662  0.084532  0.000000
  0.152520  0.088223  0.000000
  0.145480  0.095870  0.000000
  0.142748  0.100531  0.000000
  0.137075  0.108939  0.000000
  0.134500  0.121452  0.000000
  0.133201  0.115410  0.000000
  0.309399  0.014013  0.000000
  0.294389  0.012894  0.000000
  0.319126  0.010708  0.000000
  0.300060  0.010688  0.000000
  0.333151  0.014377  0.000000
  0.316613  0.018306  0.000000
  0.322685  0.027849  0.000000
  0.288409  0.020814  0.000000
  0.283740  0.014250  0.000000
  0.285590  0.032061  0.000000
  0.256299  0.038515  0.000000
  0.257355  0.042656  0.000000
  0.243697  0.050447  0.000000
  0.239387  0.033171  0.000000
  0.235626  0.045155  0.000000
  0.201409  0.048771  0.000000
  0.217501  0.041356  0.000000
  0.217681  0.053044  0.000000
  0.212641  0.060399  0.000000
  0.199533  0.065268  0.000000
  0.192488  0.068862  0.000000
  0.181206  0.069310  0.000000
  0.180386  0.076671  0.000000
  0.174675  0.080036  0.000000
  0.175806  0.087257  0.000000
  0.164058  0.091001  0.000000
  0.162758  0.098581  0.000000
  0.155364  0.105208  0.000000
  0.150682  0.111401  0.000000
  0.145830  0.115834  0.000000
  0.378329  0.010672  0.000000
  0.332799  0.011358  0.000000
  0.386618  0.013294  0.000000
  0.353400  0.015308  0.000000
  0.394260  0.028213  0.000000
  0.358855  0.011646  0.000000
  0.390006  0.025140  0.000000
  0.336486  0.030567  0.000000
  0.314439  0.035690  0.000000
  0.298800  0.031484  0.000000
  0.298706  0.038370  0.000000
  0.289615  0.045317  0.000000
  0.245092  0.037072  0.000000
  0.270370  0.027236  0.000000
  0.274653  0.037064  0.000000
  0.267362  0.042605  0.000000
  0.241976  0.059177  0.000000
  0.234044  0.047824  0.000000
  0.233438  0.064638  0.000000
  0.222891  0.052554  0.000000
  0.226636  0.061888  0.000000
  0.208442  0.069518  0.000000
  0.216380  0.072620  0.000000
  0.195278  0.077110  0.000000
  0.197546  0.085611  0.000000
  0.187521  0.087278  0.000000
  0.183660  0.095766  0.000000
  0.178506  0.098865  0.000000
  0.168132  0.104852  0.000000
  0.167729  0.110638  0.000000
  0.418712  0.010747  0.000000
  0.382625  0.020936  0.000000
  0.446212  0.014482  0.000000
  0.404556  0.013664  0.000000
  0.439113  0.009960  0.000000
  0.395616  0.011103  0.000000
  0.415760  0.014126  0.000000
  0.402323  0.018206  0.000000
  0.370277  0.030022  0.000000
  0.352227  0.029617  0.000000
  0.368824  0.013406  0.000000
  0.327950  0.022678  0.000000
  0.325214  0.036468  0.000000
  0.328232  0.051305  0.000000
  0.318803  0.044135  0.000000
  0.288642  0.050163  0.000000
  0.276995  0.044704  0.000000
  0.269631  0.053182  0.000000
  0.269402  0.059794  0.000000
  0.256580  0.054581  0.000000
  0.252379  0.066875  0.000000
  0.241566  0.070678  0.000000
  0.225974  0.071194  0.000000
  0.227742  0.082157  0.000000
  0.204012  0.080415  0.000000
  0.213935  0.080278  0.000000
  0.202091  0.094828  0.000000
  0.190667  0.104162  0.000000
  0.192010  0.112639  0.000000
  0.181512  0.108531  0.000000
  0.502906  0.009840  0.000000
  0.467845  0.014657  0.000000
  0.507078  0.014674  0.000000
  0.482856  0.013044  0.000000
  0.494064  0.013676  0.000000
  0.461538  0.012177  0.000000
  0.455156  0.011494  0.000000
  0.427955  0.019974  0.000000
  0.429382  0.012449  0.000000
  0.412857  0.027536  0.000000
  0.406181  0.036557  0.000000
  0.370085  0.018066  0.000000
  0.360321  0.027430  0.000000
  0.351490  0.037913  0.000000
  0.341154  0.030622  0.000000
  0.332702  0.043467  0.000000
  0.321444  0.053306  0.000000
  0.308130  0.041649  0.000000
  0.312894  0.057773  0.000000
  0.299867  0.050339  0.000000
  0.280901  0.056086  0.000000
  0.288774  0.064291  0.000000
  0.254537  0.055527  0.000000
  0.262445  0.071134  0.000000
  0.245294  0.075531  0.000000
  0.232679  0.080247  0.000000
  0.222402  0.092705  0.000000
  0.218853  0.090113  0.000000
  0.206519  0.095777  0.000000
  0.199065  0.102953  0.000000
  0.604387  0.011411  0.000000
  0.561072  0.018597  0.000000
  0.561926  0.014056  0.000000
  0.539054  0.012250  0.000000
  0.552711  0.011405  0.000000
  0.521558  0.012391  0.000000
  0.492371  0.025730  0.000000
  0.498241  0.021780  0.000000
  0.481137  0.011238  0.000000
  0.457133  0.024901  0.000000
  0.440425  0.020366  0.000000
  0.424536  0.027036  0.000000
  0.409444  0.028467  0.000000
  0.420165  0.044895  0.000000
  0.375741  0.039355  0.000000
  0.378069  0.044160  0.000000
  0.365140  0.033077  0.000000
  0.346216  0.009679  0.000000
  0.345350  0.019818  0.000000
  0.365670  0.046500  0.000000
  0.342956  0.046648  0.000000
  0.323691  0.066749  0.000000
  0.304258  0.053232  0.000000
  0.278180  0.064729  0.000000
  0.270320  0.071549  0.000000
  0.259226  0.076440  0.000000
  0.246252  0.084500  0.000000
  0.241014  0.088519  0.000000
  0.233059  0.105413  0.000000
  0.218406  0.102332  0.000000
  0.638009  0.014933  0.000000
  0.607149  0.014535  0.000000
  0.618697  0.010158  0.000000
  0.595064  0.012127  0.000000
  0.613985  0.034918  0.000000
  0.575325  0.010183  0.000000
  0.544592  0.025444  0.000000
  0.553440  0.033123  0.000000
  0.510219  0.024070  0.000000
  0.542539  0.029237  0.000000
  0.518562  0.026118  0.000000
  0.485116  0.027019  0.000000
  0.465123  0.026306  0.000000
  0.477887  0.041262  0.000000
  0.447963  0.026946  0.000000
  0.430833  0.031616  0.000000
  0.435849  0.050144  0.000000
  0.399893  0.042605  0.000000
  0.402013  0.047518  0.000000
  0.387338  0.035750  0.000000
  0.366328  0.052037  0.000000
  0.346973  0.043045  0.000000
  0.345505  0.056612  0.000000
  0.315081  0.071058  0.000000
  0.305463  0.066566  0.000000
  0.290779  0.072991  0.000000
  0.274662  0.080965  0.000000
  0.266135  0.086383  0.000000
  0.249386  0.097175  0.000000
  0.241851  0.096678  0.000000
  0.665499  0.010561  0.000000
  0.663797  0.027587  0.000000
  0.667746  0.021772  0.000000
  0.653229  0.016097  0.000000
  0.636751  0.032753  0.000000
  0.628005  0.011513  0.000000
  0.587036  0.012003  0.000000
  0.600475  0.038739  0.000000
  0.560847  0.028060  0.000000
  0.574095  0.015228  0.000000
  0.566514  0.032487  0.000000
  0.529098  0.011020  0.000000
  0.545798  0.013030  0.000000
  0.534711  0.022404  0.000000
  0.474865  0.021606  0.000000
  0.494469  0.038403  0.000000
  0.482168  0.033635  0.000000
  0.448823  0.032251  0.000000
  0.448830  0.046409  0.000000
  0.429930  0.036954  0.000000
  0.415011  0.042217  0.000000
  0.387179  0.042259  0.000000
  0.374429  0.061076  0.000000
  0.359280  0.055499  0.000000
  0.334000  0.060393  0.000000
  0.330257  0.068844  0.000000
  0.298940  0.065477  0.000000
  0.287274  0.073301  0.000000
  0.276816  0.092533  0.000000
  0.260898  0.087349  0.000000
  0.677159  0.020415  0.000000
  0.674755  0.012706  0.000000
  0.678274  0.036815  0.000000
  0.675325  0.076878  0.000000
  0.656848  0.011589  0.000000
  0.643926  0.010310  0.000000
  0.658629  0.033718  0.000000
  0.642998  0.037655  0.000000
  0.619043  0.018579  0.000000
  0.633393  0.019040  0.000000
  0.627979  0.030766  0.000000
  0.604782  0.030656  0.000000
  0.586128  0.028106  0.000000
  0.610027  0.025040  0.000000
  0.572177  0.036598  0.000000
  0.543558  0.042824  0.000000
  0.526961  0.041964  0.000000
  0.521849  0.018273  0.000000
  0.506725  0.033848  0.000000
  0.481534  0.050549  0.000000
  0.468104  0.034214  0.000000
  0.442633  0.039361  0.000000
  0.416449  0.053259  0.000000
  0.410929  0.064035  0.000000
  0.390796  0.052242  0.000000
  0.363230  0.062566  0.000000
  0.343878  0.059913  0.000000
  0.321713  0.082202  0.000000
  0.308975  0.079591  0.000000
  0.279826  0.084586  0.000000
  0.684553  0.059736  0.000000
  0.679908  0.103748  0.000000
  0.685104  0.025250  0.000000
  0.687174  0.039384  0.000000
  0.651099  0.129243  0.000000
  0.667961  0.036804  0.000000
  0.680078  0.057794  0.000000
  0.670273  0.062798  0.000000
  0.674223  0.105707  0.000000
  0.668275  0.053895  0.000000
  0.649116  0.023507  0.000000
  0.645560  0.029947  0.000000
  0.640606  0.047790  0.000000
  0.629137  0.041353  0.000000
  0.622496  0.027150  0.000000
  0.620797  0.043331  0.000000
  0.582708  0.035119  0.000000
  0.574818  0.024948  0.000000
  0.551373  0.040309  0.000000
  0.529154  0.034342  0.000000
  0.498829  0.045677  0.000000
  0.491510  0.044373  0.000000
  0.464884  0.039943  0.000000
  0.459543  0.061711  0.000000
  0.416222  0.059357  0.000000
  0.399007  0.058006  0.000000
  0.384186  0.061151  0.000000
  0.356730  0.068626  0.000000
  0.328950  0.075821  0.000000
  0.307558  0.077510  0.000000
  0.688875  0.045541  0.000000
  0.660539  0.182194  0.000000
  0.684779  0.085613  0.000000
  0.689369  0.029887  0.000000
  0.689282  0.076026  0.000000
  0.688524  0.015419  0.000000
  0.685442  0.010068  0.000000
  0.685820  0.073757  0.000000
  0.664570  0.081798  0.000000
  0.672413  0.111697  0.000000
  0.676539  0.087337  0.000000
  0.673168  0.042448  0.000000
  0.672652  0.068592  0.000000
  0.672449  0.093339  0.000000
  0.655839  0.041387  0.000000
  0.650905  0.051842  0.000000
  0.636388  0.052686  0.000000
  0.617897  0.053585  0.000000
  0.595898  0.028421  0.000000
  0.587978  0.041106  0.000000
  0.566740  0.047506  0.000000
  0.556490  0.059624  0.000000
  0.512620  0.048447  0.000000
  0.511549  0.036585  0.000000
  0.471615  0.051054  0.000000
  0.457128  0.042257  0.000000
  0.427836  0.059604  0.000000
  0.397274  0.061831  0.000000
  0.353439  0.071695  0.000000
  0.345379  0.071879  0.000000
  0.651176  0.171046  0.000000
  0.688482  0.135705  0.000000
  0.690434  0.059460  0.000000
  0.631617  0.256600  0.000000
  0.677186  0.236325  0.000000
  0.644978  0.199596  0.000000
  0.676495  0.226263  0.000000
  0.684659  0.117226  0.000000
  0.682957  0.140946  0.000000
  0.682302  0.165893  0.000000
  0.670848  0.116164  0.000000
  0.689316  0.102848  0.000000
  0.690723  0.120868  0.000000
  0.659541  0.123393  0.000000
  0.659133  0.048400  0.000000
  0.687260  0.093042  0.000000
  0.657620  0.061637  0.000000
  0.654455  0.096988  0.000000
  0.638791  0.071069  0.000000
  0.634876  0.059951  0.000000
  0.601629  0.054988  0.000000
  0.587898  0.019119  0.000000
  0.600645  0.046213  0.000000
  0.526709  0.053049  0.000000
  0.522430  0.049325  0.000000
  0.507736  0.045871  0.000000
  0.466526  0.052273  0.000000
  0.430393  0.047117  0.000000
  0.389589  0.071269  0.000000
  0.381576  0.067848  0.000000
  0.592591  0.302022  0.000000
  0.668223  0.157726  0.000000
  0.579891  0.273620  0.000000
  0.689119  0.494676  0.000000
  0.571625  0.305704  0.000000
  0.633222  0.279305  0.000000
  0.659701  0.196294  0.000000
  0.683437  0.205260  0.000000
  0.683671  0.256465  0.000000
  0.677001  0.196297  0.000000
  0.670710  0.265940  0.000000
  0.672607  0.176706  0.000000
  0.665807  0.174222  0.000000
  0.684362  0.174821  0.000000
  0.685038  0.151773  0.000000
  0.664717  0.132046  0.000000
  0.681779  0.134655  0.000000
  0.659725  0.081629  0.000000
  0.651023  0.073527  0.000000
  0.658728  0.070848  0.000000
  0.649645  0.058480  0.000000
  0.624052  0.051186  0.000000
  0.609392  0.048867  0.000000
  0.589084  0.047884  0.000000
  0.561815  0.048879  0.000000
  0.541740  0.048532  0.000000
  0.492111  0.057387  0.000000
  0.451221  0.056486  0.000000
  0.444706  0.054844  0.000000
  0.407909  0.069535  0.000000
 -0.010000  0.500000  0.000000
 -0.010000  0.490000  0.000000
 -0.010000  0.480000  0.000000
 -0.010000  0.470000  0.000000
 -0.010000  0.460000  0.000000
 -0.010000  0.450000  0.000000
 -0.010000  0.440000  0.000000
 -0.010000  0.430000  0.000000
 -0.010000  0.420000  0.000000
 -0.010000  0.410000  0.000000
 -0.010000  0.400000  0.000000
 -0.010000  0.390000  0.000000
 -0.010000  0.380000  0.000000
 -0.010000  0.370000  0.000000
 -0.010000  0.360000  0.000000
 -0.010000  0.350000  0.000000
 -0.010000  0.340000  0.000000
 -0.010000  0.330000  0.000000
 -0.010000  0.320000  0.000000
 -0.010000  0.310000  0.000000
 -0.010000  0.300000  0.000000
 -0.010000  0.290000  0.000000
 -0.010000  0.280000  0.000000
 -0.010000  0.270000  0.000000
 -0.010000  0.260000  0.000000
 -0.010000  0.250000  0.000000
 -0.010000  0.240000  0.000000
 -0.010000  0.230000  0.000000
 -0.010000  0.220000  0.000000
 -0.010000  0.210000  0.000000
 -0.010000  0.200000  0.000000
 -0.010000  0.190000  0.000000
 -0.010000  0.180000  0.000000
 -0.010000  0.170000  0.000000
 -0.010000  0.160000  0.000000
 -0.010000  0.150000  0.000000
 -0.010000  0.140000  0.000000
 -0.010000  0.130000  0.000000
 -0.010000  0.120000  0.000000
 -0.010000  0.110000  0.000000
 -0.010000  0.100000  0.000000
 -0.010000  0.090000  0.000000
 -0.010000  0.080000  0.000000
 -0.010000  0.070000  0.000000
 -0.010000  0.060000  0.000000
 -0.010000  0.050000  0.000000
 -0.010000  0.040000  0.000000
 -0.010000  0.030000  0.000000
 -0.010000  0.020000  0.000000
 -0.010000  0.010000  0.000000
 -0.100000 -0.010000  0.000000
 -0.090000 -0.010000  0.000000
 -0.080000 -0.010000  0.000000
 -0.070000 -0.010000  0.000000
 -0.060000 -0.010000  0.000000
 -0.050000 -0.010000  0.000000
 -0.040000 -0.010000  0.000000
 -0.030000 -0.010000  0.000000