<?xml version="1.0" encoding="UTF-8"?>
<VTKFile type="UnstructuredGrid" version="1.0" byte_order="LittleEndian">
<UnstructuredGrid>
  <Piece NumberOfPoints="1554" NumberOfCells="1554">
      <PointData>
        <DataArray type="Int32" Name="Type" format="ascii">
 1 1 1 1 1 1 1 1 1 1
 1 1 1 1 1 1 1 1 1 1
 1 1 1 1 1 1 1 1 1 1
 1 1 1 1 1 1 1 1 1 1
 1 1 1 1 1 1 1 1 1 1
 1 1 1 1 1 1 1 1 1 1
 1 3 3 3 3 3 3 3 3 3
 3 3 3 3 3 3 3 3 3 3
 3 3 3 3 3 3 3 3 3 3
 3 3 3 3 3 3 3 3 3 3
 3 3 3 3 3 3 3 3 3 3
 3 3 3 3 3 3 3 3 3 3
 3 3 3 3 3 3 3 3 3 3
 1 1 1 1 1 1 1 1 1 1
 1 1 1 1 1 1 1 1 1 1
 1 1 1 1 1 1 1 1 1 1
 1 1 1 1 1 1 1 1 1 1
 1 1 1 1 1 1 1 1 1 1
 1 1 1 1 1 1 1 1 1 1
 1 2 2 2 2 2 2 2 2 2
 2 2 2 2 2 2 2 2 2 2
 2 2 2 2 2 2 2 2 2 2
 2 2 2 2 2 2 2 2 2 2
 2 2 2 2 2 2 2 2 2 2
 2 2 2 2 2 2 2 2 2 2
 2 2 2 2 2 2 2 2 2 2
 2 2 2 2 2 2 2 2 2 2
 2 2 2 2 2 2 2 2 2 2
 2 2 2 2 2 2 2 2 2 2
 2 2 2 2 2 2 2 2 2 2
 2 2 2 2 2 2 2 2 2 2
 2 2 2 2 2 2 2 2 2 2
 2 2 2 2 2 2 2 2 2 2
 2 2 2 2 2 2 2 2 2 2
 2 2 2 2 2 2 2 2 2 2
 2 2 2 2 2 2 2 2 2 2
 2 2 2 2 2 2 2 2 2 2
 2 2 2 2 2 2 2 2 2 2
 2 2 2 2 2 2 2 2 2 2
 2 2 2 2 2 2 2 2 2 2
 2 2 2 2 2 2 2 2 2 2
 2 2 2 2 2 2 2 2 2 2
 2 2 2 2 2 2 2 2 2 2
 2 2 2 2 2 2 2 2 2 2
 2 2 2 2 2 2 2 2 2 2
 2 2 2 2 2 2 2 2 2 2
 2 2 2 2 2 2 2 2 2 2
 2 2 2 2 2 2 2 2 2 2
 2 2 2 2 2 2 2 2 2 2
 2 2 2 2 2 2 2 2 2 2
 2 2 2 2 2 2 2 2 2 2
 2 2 2 2 2 2 2 2 2 2
 2 2 2 2 2 2 2 2 2 2
 2 2 2 2 2 2 2 2 2 2
 2 2 2 2 2 2 2 2 2 2
 2 2 2 2 2 2 2 2 2 2
 2 2 2 2 2 2 2 2 2 2
 2 2 2 2 2 2 2 2 2 2
 2 2 2 2 2 2 2 2 2 2
 2 2 2 2 2 2 2 2 2 2
 2 2 2 2 2 2 2 2 2 2
 2 2 2 2 2 2 2 2 2 2
 2 2 2 2 2 2 2 2 2 2
 2 2 2 2 2 2 2 2 2 2
 2 2 2 2 2 2 2 2 2 2
 2 2 2 2 2 2 2 2 2 2
 2 2 2 2 2 2 2 2 2 2
 2 2 2 2 2 2 2 2 2 2
 2 2 2 2 2 2 2 2 2 2
 2 2 2 2 2 2 2 2 2 2
 2 2 2 2 2 2 2 2 2 2
 2 2 2 2 2 2 2 2 2 2
 2 2 2 2 2 2 2 2 2 2
 2 2 2 2 2 2 2 2 2 2
 2 2 2 2 2 2 2 2 2 2
 2 2 2 2 2 2 2 2 2 2
 2 2 2 2 2 2 2 2 2 2
 2 2 2 2 2 2 2 2 2 2
 2 2 2 2 2 2 2 2 2 2
 0 0 0 0 0 0 0 0 0 0
 0 0 0 0 0 0 0 0 0 0
 0 0 0 0 0 0 0 0 0 0
 0 0 0 0 0 0 0 0 0 0
 0 0 0 0 0 0 0 0 0 0
 0 0 0 0 0 0 0 0 0 0
 0 0 0 0 0 0 0 0 0 0
 0 0 0 0 0 0 0 0 0 0
 0 0 0 0 0 0 0 0 0 0
 0 0 0 0 0 0 0 0 0 0
 0 0 0 0 0 0 0 0 0 0
 0 0 0 0 0 0 0 0 0 0
 0 0 0 0 0 0 0 0 0 0
 0 0 0 0 0 0 0 0 0 0
 0 0 0 0 0 0 0 0 0 0
 0 0 0 0 0 0 0 0 0 0
 0 0 0 0 0 0 0 0 0 0
 0 0 0 0 0 0 0 0 0 0
 0 0 0 0 0 0 0 0 0 0
 0 0 0 0 0 0 0 0 0 0
 0 0 0 0 0 0 0 0 0 0
 0 0 0 0 0 0 0 0 0 0
 0 0 0 0 0 0 0 0 0 0
 0 0 0 0 0 0 0 0 0 0
 0 0 0 0 0 0 0 0 0 0
 0 0 0 0 0 0 0 0 0 0
 0 0 0 0 0 0 0 0 0 0
 0 0 0 0 0 0 0 0 0 0
 0 0 0 0 0 0 0 0 0 0
 0 0 0 0 0 0 0 0 0 0
 0 0 0 0 0 0 0 0 0 0
 0 0 0 0 0 0 0 0 0 0
 0 0 0 0 0 0 0 0 0 0
 0 0 0 0 0 0 0 0 0 0
 0 0 0 0 0 0 0 0 0 0
 0 0 0 0 0 0 0 0 0 0
 0 0 0 0 0 0 0 0 0 0
 0 0 0 0 0 0 0 0 0 0
 0 0 0 0 0 0 0 0 0 0
 0 0 0 0 0 0 0 0 0 0
 0 0 0 0 0 0 0 0 0 0
 0 0 0 0 0 0 0 0 0 0
 0 0 0 0 0 0 0 0 0 0
 0 0 0 0 0 0 0 0 0 0
 0 0 0 0 0 0 0 0 0 0
 0 0 0 0 0 0 0 0 0 0
 0 0 0 0 0 0 0 0 0 0
 0 0 0 0 0 0 0 0 0 0
 0 0 0 0 0 0 0 0 0 0
 0 0 0 0 0 0 0 0 0 0
 0 0 0 0 0 0 0 0 0 0
 0 0 0 0 0 0 0 0 0 0
 0 0 0 0 0 0 0 0 0 0
 0 0 0 0 0 0 0 0 0 0
 0 0 0 0 0 0 0 0 0 0
 0 0 0 0 0 0 0 0 0 0
 0 0 0 0 0 0 0 0 0 0
 0 0 0 0 0 0 0 0 0 0
 0 0 0 0 0 0 0 0 0 0
 0 0 0 0 0 0 0 0 0 0
 0 0 0 0 0 0 0 0 0 0
 0 0 0 0 0 0 0 0 0 0
 0 0 0 0 0 0 0 0 0 0
 0 0 0 0 0 0 0 0 0 0
 0 0 0 0 0 0 0 0 0 0
 0 0 0 0 0 0 0 0 0 0
 0 0 0 0 0 0 0 0 0 0
 0 0 0 0 0 0 0 0 0 0
 0 0 0 0 0 0 0 0 0 0
 0 0 0 0 0 0 0 0 0 0
 0 0 0 0 0 0 0 0 0 0
 0 0 0 0 0 0 0 0 0 0
 0 0 0 0 0 0 0 0 0 0
 0 0 0 0 0 0 0 0 0 0
 0 0 0 0 0 0 0 0 0 0
 0 0 0 0 0 0 0 0 0 0
 0 0 0 0
        </DataArray>
      </PointData>
      <Points>
        <DataArray type="Float32" NumberOfComponents="3" format="ascii">
  0.000000  0.500000  0.000000
  0.000000  0.490000  0.000000
  0.000000  0.480000  0.000000
  0.000000  0.470000  0.000000
  0.000000  0.460000  0.000000
  0.000000  0.450000  0.000000
  0.000000  0.440000  0.000000
  0.000000  0.430000  0.000000
  0.000000  0.420000  0.000000
  0.000000  0.410000  0.000000
  0.000000  0.400000  0.000000
  0.000000  0.390000  0.000000
  0.000000  0.380000  0.000000
  0.000000  0.370000  0.000000
  0.000000  0.360000  0.000000
  0.000000  0.350000  0.000000
  0.000000  0.340000  0.000000
  0.000000  0.330000  0.000000
  0.000000  0.320000  0.000000
  0.000000  0.310000  0.000000
  0.000000  0.300000  0.000000
  0.000000  0.290000  0.000000
  0.000000  0.280000  0.000000
  0.000000  0.270000  0.000000
  0.000000  0.260000  0.000000
  0.000000  0.250000  0.000000
  0.000000  0.240000  0.000000
  0.000000  0.230000  0.000000
  0.000000  0.220000  0.000000
  0.000000  0.210000  0.000000
  0.000000  0.200000  0.000000
  0.000000  0.190000  0.000000
  0.000000  0.180000  0.000000
  0.000000  0.170000  0.000000
  0.000000  0.160000  0.000000
  0.000000  0.150000  0.000000
  0.000000  0.140000  0.000000
  0.000000  0.130000  0.000000
  0.000000  0.120000  0.000000
  0.000000  0.110000  0.000000
  0.000000  0.100000  0.000000
  0.000000  0.090000  0.000000
  0.000000  0.080000  0.000000
  0.000000  0.070000  0.000000
  0.000000  0.060000  0.000000
  0.000000  0.050000  0.000000
  0.000000  0.040000  0.000000
  0.000000  0.030000  0.000000
  0.000000  0.020000  0.000000
  0.000000  0.010000  0.000000
 -0.100000  0.000000  0.000000
 -0.090000  0.000000  0.000000
 -0.080000  0.000000  0.000000
 -0.070000  0.000000  0.000000
 -0.060000  0.000000  0.000000
 -0.050000  0.000000  0.000000
 -0.040000  0.000000  0.000000
 -0.030000  0.000000  0.000000
 -0.020000  0.000000  0.000000
 -0.010000  0.000000  0.000000
 -0.000000  0.000000  0.000000
  0.010000  0.000000  0.000000
  0.020000  0.000000  0.000000
  0.030000  0.000000  0.000000
  0.040000  0.000000  0.000000
  0.050000  0.000000  0.000000
  0.060000  0.000000  0.000000
  0.070000  0.000000  0.000000
  0.080000  0.000000  0.000000
  0.090000  0.000000  0.000000
  0.100000  0.000000  0.000000
  0.110000  0.000000  0.000000
  0.120000  0.000000  0.000000
  0.130000  0.000000  0.000000
  0.140000  0.000000  0.000000
  0.150000  0.000000  0.000000
  0.160000  0.000000  0.000000
  0.170000  0.000000  0.000000
  0.180000  0.000000  0.000000
  0.190000  0.000000  0.000000
  0.200000  0.000000  0.000000
  0.210000  0.000000  0.000000
  0.220000  0.000000  0.000000
  0.230000  0.000000  0.000000
  0.240000  0.000000  0.000000
  0.250000  0.000000  0.000000
  0.260000  0.000000  0.000000
  0.270000  0.000000  0.000000
  0.280000  0.000000  0.000000
  0.290000  0.000000  0.000000
  0.300000  0.000000  0.000000
  0.310000  0.000000  0.000000
  0.320000  0.000000  0.000000
  0.330000  0.000000  0.000000
  0.340000  0.000000  0.000000
  0.350000  0.000000  0.000000
  0.360000  0.000000  0.000000
  0.370000  0.000000  0.000000
  0.380000  0.000000  0.000000
  0.390000  0.000000  0.000000
  0.400000  0.000000  0.000000
  0.410000  0.000000  0.000000
  0.420000  0.000000  0.000000
  0.430000  0.000000  0.000000
  0.440000  0.000000  0.000000
  0.450000  0.000000  0.000000
  0.460000  0.000000  0.000000
  0.470000  0.000000  0.000000
  0.480000  0.000000  0.000000
  0.490000  0.000000  0.000000
  0.500000  0.000000  0.000000
  0.510000  0.000000  0.000000
  0.520000  0.000000  0.000000
  0.530000  0.000000  0.000000
  0.540000  0.000000  0.000000
  0.550000  0.000000  0.000000
  0.560000  0.000000  0.000000
  0.570000  0.000000  0.000000
  0.580000  0.000000  0.000000
  0.590000  0.000000  0.000000
  0.600000  0.000000  0.000000
  0.610000  0.000000  0.000000
  0.620000  0.000000  0.000000
  0.630000  0.000000  0.000000
  0.640000  0.000000  0.000000
  0.650000  0.000000  0.000000
  0.660000  0.000000  0.000000
  0.670000  0.000000  0.000000
  0.680000  0.000000  0.000000
  0.690000  0.000000  0.000000
  0.700000  0.000000  0.000000
  0.710000  0.000000  0.000000
  0.720000  0.000000  0.000000
  0.730000  0.000000  0.000000
  0.740000  0.000000  0.000000
  0.750000  0.000000  0.000000
  0.760000  0.000000  0.000000
  0.770000  0.000000  0.000000
  0.780000  0.000000  0.000000
  0.790000  0.000000  0.000000
  0.800000  0.000000  0.000000
  0.700000  0.010000  0.000000
  0.700000  0.020000  0.000000
  0.700000  0.030000  0.000000
  0.700000  0.040000  0.000000
  0.700000  0.050000  0.000000
  0.700000  0.060000  0.000000
  0.700000  0.070000  0.000000
  0.700000  0.080000  0.000000
  0.700000  0.090000  0.000000
  0.700000  0.100000  0.000000
  0.700000  0.110000  0.000000
  0.700000  0.120000  0.000000
  0.700000  0.130000  0.000000
  0.700000  0.140000  0.000000
  0.700000  0.150000  0.000000
  0.700000  0.160000  0.000000
  0.700000  0.170000  0.000000
  0.700000  0.180000  0.000000
  0.700000  0.190000  0.000000
  0.700000  0.200000  0.000000
  0.700000  0.210000  0.000000
  0.700000  0.220000  0.000000
  0.700000  0.230000  0.000000
  0.700000  0.240000  0.000000
  0.700000  0.250000  0.000000
  0.700000  0.260000  0.000000
  0.700000  0.270000  0.000000
  0.700000  0.280000  0.000000
  0.700000  0.290000  0.000000
  0.700000  0.300000  0.000000
  0.700000  0.310000  0.000000
  0.700000  0.320000  0.000000
  0.700000  0.330000  0.000000
  0.700000  0.340000  0.000000
  0.700000  0.350000  0.000000
  0.700000  0.360000  0.000000
  0.700000  0.370000  0.000000
  0.700000  0.380000  0.000000
  0.700000  0.390000  0.000000
  0.700000  0.400000  0.000000
  0.700000  0.410000  0.000000
  0.700000  0.420000  0.000000
  0.700000  0.430000  0.000000
  0.700000  0.440000  0.000000
  0.700000  0.450000  0.000000
  0.700000  0.460000  0.000000
  0.700000  0.470000  0.000000
  0.700000  0.480000  0.000000
  0.700000  0.490000  0.000000
  0.700000  0.500000  0.000000
  0.020597  0.010183  0.000000
  0.020836  0.020347  0.000000
  0.036282  0.014309  0.000000
  0.010452  0.009796  0.000000
  0.036236  0.023378  0.000000
  0.009503  0.018847  0.000000
  0.040903  0.029831  0.000000
  0.047609  0.016592  0.000000
  0.069313  0.025963  0.000000
  0.046888  0.033061  0.000000
  0.055480  0.035972  0.000000
  0.009529  0.029974  0.000000
  0.014267  0.040520  0.000000
  0.009153  0.044290  0.000000
  0.010326  0.056588  0.000000
  0.023919  0.051838  0.000000
  0.041665  0.057928  0.000000
  0.012627  0.060202  0.000000
  0.030344  0.074696  0.000000
  0.008875  0.072787  0.000000
  0.017362  0.070713  0.000000
  0.011666  0.082371  0.000000
  0.009578  0.090606  0.000000
  0.016664  0.101455  0.000000
  0.009437  0.101493  0.000000
  0.024672  0.105627  0.000000
  0.009135  0.115251  0.000000
  0.020797  0.117464  0.000000
  0.018161  0.114388  0.000000
  0.031913  0.118071  0.000000
  0.045070  0.008157  0.000000
  0.029626  0.010109  0.000000
  0.060010  0.009104  0.000000
  0.054918  0.019124  0.000000
  0.074491  0.011150  0.000000
  0.079965  0.019404  0.000000
  0.096567  0.012964  0.000000
  0.066339  0.012534  0.000000
  0.064901  0.039141  0.000000
  0.056925  0.025319  0.000000
  0.045012  0.047661  0.000000
  0.026515  0.025852  0.000000
  0.065263  0.043459  0.000000
  0.030967  0.036091  0.000000
  0.055846  0.055053  0.000000
  0.023845  0.043184  0.000000
  0.017801  0.030240  0.000000
  0.035160  0.052613  0.000000
  0.053702  0.058890  0.000000
  0.025189  0.058625  0.000000
  0.054133  0.072533  0.000000
  0.039797  0.066526  0.000000
  0.021813  0.078857  0.000000
  0.037114  0.080854  0.000000
  0.022573  0.090224  0.000000
  0.036004  0.097682  0.000000
  0.024551  0.092339  0.000000
  0.038245  0.094917  0.000000
  0.034557  0.108134  0.000000
  0.045831  0.110137  0.000000
  0.111603  0.011814  0.000000
  0.084860  0.008000  0.000000
  0.102110  0.009606  0.000000
  0.087499  0.018953  0.000000
  0.108148  0.021928  0.000000
  0.130265  0.013440  0.000000
  0.144947  0.019648  0.000000
  0.114084  0.035288  0.000000
  0.094417  0.043515  0.000000
  0.070424  0.026759  0.000000
  0.098494  0.031137  0.000000
  0.095720  0.023801  0.000000
  0.073435  0.049099  0.000000
  0.078786  0.067873  0.000000
  0.092275  0.059285  0.000000
  0.034345  0.041851  0.000000
  0.065221  0.057785  0.000000
  0.050432  0.044134  0.000000
  0.045343  0.070385  0.000000
  0.027808  0.066788  0.000000
  0.064988  0.066865  0.000000
  0.062050  0.079475  0.000000
  0.052464  0.081289  0.000000
  0.041289  0.083068  0.000000
  0.058036  0.090845  0.000000
  0.049099  0.093027  0.000000
  0.052465  0.099453  0.000000
  0.060556  0.107910  0.000000
  0.055091  0.109857  0.000000
  0.043811  0.115916  0.000000
  0.150280  0.008974  0.000000
  0.120693  0.008912  0.000000
  0.154571  0.014589  0.000000
  0.120145  0.018903  0.000000
  0.142766  0.038589  0.000000
  0.137174  0.008661  0.000000
  0.140933  0.031787  0.000000
  0.139312  0.020000  0.000000
  0.124772  0.040456  0.000000
  0.085251  0.030513  0.000000
  0.134437  0.038762  0.000000
  0.084270  0.038058  0.000000
  0.115483  0.043682  0.000000
  0.078066  0.038259  0.000000
  0.075769  0.055826  0.000000
  0.111353  0.027546  0.000000
  0.085490  0.049992  0.000000
  0.099576  0.049842  0.000000
  0.085465  0.060432  0.000000
  0.081932  0.074890  0.000000
  0.104591  0.068351  0.000000
  0.069313  0.070748  0.000000
  0.066558  0.086774  0.000000
  0.091536  0.076192  0.000000
  0.077828  0.084811  0.000000
  0.069309  0.098534  0.000000
  0.080359  0.100519  0.000000
  0.071344  0.100994  0.000000
  0.068842  0.115271  0.000000
  0.078018  0.112459  0.000000
  0.179902  0.008916  0.000000
  0.166321  0.009186  0.000000
  0.177769  0.014670  0.000000
  0.165085  0.016205  0.000000
  0.205425  0.011363  0.000000
  0.159717  0.026409  0.000000
  0.152091  0.028999  0.000000
  0.170226  0.024418  0.000000
  0.128200  0.025116  0.000000
  0.171199  0.035551  0.000000
  0.125177  0.029553  0.000000
  0.157629  0.035710  0.000000
  0.150427  0.045506  0.000000
  0.135413  0.051490  0.000000
  0.145036  0.064738  0.000000
  0.101024  0.037741  0.000000
  0.130280  0.050519  0.000000
  0.111642  0.048365  0.000000
  0.120071  0.071413  0.000000
  0.103099  0.056589  0.000000
  0.095660  0.070658  0.000000
  0.108793  0.064527  0.000000
  0.099318  0.082492  0.000000
  0.078239  0.085146  0.000000
  0.101744  0.086412  0.000000
  0.089261  0.094816  0.000000
  0.093927  0.091197  0.000000
  0.097376  0.106630  0.000000
  0.090611  0.104624  0.000000
  0.087285  0.114542  0.000000
  0.213221  0.011933  0.000000
  0.193935  0.009848  0.000000
  0.234407  0.021782  0.000000
  0.208416  0.022306  0.000000
  0.252868  0.010826  0.000000
  0.214685  0.031085  0.000000
  0.230158  0.012512  0.000000
  0.192203  0.016318  0.000000
  0.200322  0.021773  0.000000
  0.223916  0.028473  0.000000
  0.192105  0.030650  0.000000
  0.202786  0.034183  0.000000
  0.185929  0.023483  0.000000
  0.160449  0.044503  0.000000
  0.149762  0.052094  0.000000
  0.156162  0.056483  0.000000
  0.120076  0.056754  0.000000
  0.170589  0.054844  0.000000
  0.120195  0.059657  0.000000
  0.138173  0.059369  0.000000
  0.130894  0.066949  0.000000
  0.136344  0.071842  0.000000
  0.113617  0.077471  0.000000
  0.124837  0.078840  0.000000
  0.123155  0.091196  0.000000
  0.115376  0.083229  0.000000
  0.112720  0.096425  0.000000
  0.111025  0.098499  0.000000
  0.105048  0.103286  0.000000
  0.110522  0.112390  0.000000
  0.270140  0.010390  0.000000
  0.224855  0.010848  0.000000
  0.241557  0.011261  0.000000
  0.218587  0.019562  0.000000
  0.301432  0.025575  0.000000
  0.260882  0.013418  0.000000
  0.276006  0.014689  0.000000
  0.246534  0.016619  0.000000
  0.241025  0.025226  0.000000
  0.239005  0.033249  0.000000
  0.226656  0.033586  0.000000
  0.237620  0.043498  0.000000
  0.205197  0.038856  0.000000
  0.177660  0.027952  0.000000
  0.185954  0.036405  0.000000
  0.169929  0.041867  0.000000
  0.174020  0.051780  0.000000
  0.189197  0.052906  0.000000
  0.163847  0.062667  0.000000
  0.155013  0.066353  0.000000
  0.170349  0.069311  0.000000
  0.149548  0.075871  0.000000
  0.139085  0.078854  0.000000
  0.148264  0.085678  0.000000
  0.132349  0.088342  0.000000
  0.144579  0.090366  0.000000
  0.134451  0.101325  0.000000
  0.130347  0.094682  0.000000
  0.128122  0.111367  0.000000
  0.121605  0.109223  0.000000
  0.290473  0.017561  0.000000
  0.284230  0.011589  0.000000
  0.338487  0.026068  0.000000
  0.294142  0.010779  0.000000
  0.350037  0.023511  0.000000
  0.317139  0.013221  0.000000
  0.315718  0.027218  0.000000
  0.293682  0.026648  0.000000
  0.305633  0.010921  0.000000
  0.281301  0.025761  0.000000
  0.266156  0.021458  0.000000
  0.257473  0.024854  0.000000
  0.256639  0.029719  0.000000
  0.218267  0.043421  0.000000
  0.228984  0.053746  0.000000
  0.195297  0.042830  0.000000
  0.182690  0.043382  0.000000
  0.214135  0.049626  0.000000
  0.195223  0.052847  0.000000
  0.206920  0.050180  0.000000
  0.181054  0.066671  0.000000
  0.182541  0.059148  0.000000
  0.184114  0.072948  0.000000
  0.159051  0.075760  0.000000
  0.169567  0.077308  0.000000
  0.165204  0.084542  0.000000
  0.161359  0.087668  0.000000
  0.151480  0.096340  0.000000
  0.150705  0.107084  0.000000
  0.151297  0.102927  0.000000
  0.353966  0.008685  0.000000
  0.336153  0.012291  0.000000
  0.363233  0.013510  0.000000
  0.340930  0.014406  0.000000
  0.376663  0.021037  0.000000
  0.350522  0.017610  0.000000
  0.366313  0.030301  0.000000
  0.323180  0.018856  0.000000
  0.327231  0.009956  0.000000
  0.322652  0.032102  0.000000
  0.287621  0.036741  0.000000
  0.292116  0.038327  0.000000
  0.275384  0.046303  0.000000
  0.275510  0.028452  0.000000
  0.264753  0.036316  0.000000
  0.226191  0.043651  0.000000
  0.247151  0.036992  0.000000
  0.239829  0.051557  0.000000
  0.244955  0.059067  0.000000
  0.223705  0.058867  0.000000
  0.211122  0.062873  0.000000
  0.203051  0.060128  0.000000
  0.202115  0.069988  0.000000
  0.193387  0.068058  0.000000
  0.198115  0.077557  0.000000
  0.183961  0.081812  0.000000
  0.179900  0.088086  0.000000
  0.173625  0.095580  0.000000
  0.174920  0.099823  0.000000
  0.165811  0.100826  0.000000
  0.427796  0.010923  0.000000
  0.370938  0.012198  0.000000
  0.435261  0.014193  0.000000
  0.402712  0.016531  0.000000
  0.446325  0.028390  0.000000
  0.405681  0.010494  0.000000
  0.437735  0.021995  0.000000
  0.384032  0.030638  0.000000
  0.354893  0.033790  0.000000
  0.330306  0.025542  0.000000
  0.338027  0.035900  0.000000
  0.326161  0.041344  0.000000
  0.275411  0.036281  0.000000
  0.308929  0.014698  0.000000
  0.307874  0.029719  0.000000
  0.303552  0.037124  0.000000
  0.269077  0.051663  0.000000
  0.260932  0.041992  0.000000
  0.260932  0.056955  0.000000
  0.249536  0.044053  0.000000
  0.255901  0.050838  0.000000
  0.233646  0.062556  0.000000
  0.242409  0.065365  0.000000
  0.215570  0.067660  0.000000
  0.225195  0.081486  0.000000
  0.213739  0.080240  0.000000
  0.209856  0.081480  0.000000
  0.198994  0.086466  0.000000
  0.189527  0.087197  0.000000
  0.191918  0.099603  0.000000
  0.465468  0.015732  0.000000
  0.427587  0.026733  0.000000
  0.507028  0.010701  0.000000
  0.452323  0.009749  0.000000
  0.492345  0.012329  0.000000
  0.444086  0.013568  0.000000
  0.471068  0.010351  0.000000
  0.453863  0.015778  0.000000
  0.419791  0.027363  0.000000
  0.394484  0.018371  0.000000
  0.414768  0.013862  0.000000
  0.363070  0.022440  0.000000
  0.371690  0.031418  0.000000
  0.374383  0.048154  0.000000
  0.362767  0.047476  0.000000
  0.324562  0.041949  0.000000
  0.311747  0.044644  0.000000
  0.300763  0.046391  0.000000
  0.299357  0.053450  0.000000
  0.288648  0.053585  0.000000
  0.283991  0.066412  0.000000
  0.271071  0.063013  0.000000
  0.256171  0.063941  0.000000
  0.257094  0.079715  0.000000
  0.224163  0.071053  0.000000
  0.235742  0.074708  0.000000
  0.234030  0.089362  0.000000
  0.212739  0.094326  0.000000
  0.215010  0.095110  0.000000
  0.200524  0.095655  0.000000
  0.565596  0.011728  0.000000
  0.528193  0.011008  0.000000
  0.568213  0.015977  0.000000
  0.546368  0.013583  0.000000
  0.554683  0.009963  0.000000
  0.527108  0.013562  0.000000
  0.506993  0.013087  0.000000
  0.475968  0.014974  0.000000
  0.485636  0.011068  0.000000
  0.467581  0.029556  0.000000
  0.452501  0.031153  0.000000
  0.420316  0.013371  0.000000
  0.413083  0.026744  0.000000
  0.399477  0.034227  0.000000
  0.384881  0.020348  0.000000
  0.374586  0.041551  0.000000
  0.358242  0.049263  0.000000
  0.350895  0.035977  0.000000
  0.355069  0.052824  0.000000
  0.340670  0.050009  0.000000
  0.314599  0.050577  0.000000
  0.326994  0.056973  0.000000
  0.281132  0.048868  0.000000
  0.293215  0.057663  0.000000
  0.276165  0.065336  0.000000
  0.259187  0.071511  0.000000
  0.247073  0.091838  0.000000
  0.247520  0.074534  0.000000
  0.236123  0.081337  0.000000
  0.223453  0.090237  0.000000
  0.650154  0.011900  0.000000
  0.618146  0.027336  0.000000
  0.621851  0.012970  0.000000
  0.601307  0.011857  0.000000
  0.612269  0.017819  0.000000
  0.578439  0.012703  0.000000
  0.549985  0.025110  0.000000
  0.556038  0.019928  0.000000
  0.540332  0.011899  0.000000
  0.511957  0.023230  0.000000
  0.490831  0.020637  0.000000
  0.472649  0.024889  0.000000
  0.458280  0.025479  0.000000
  0.472320  0.041591  0.000000
  0.418472  0.036928  0.000000
  0.422942  0.047631  0.000000
  0.403538  0.028038  0.000000
  0.391149  0.011483  0.000000
  0.380396  0.010302  0.000000
  0.414542  0.044565  0.000000
  0.383670  0.038147  0.000000
  0.365918  0.063342  0.000000
  0.345216  0.041449  0.000000
  0.315515  0.056887  0.000000
  0.310803  0.065504  0.000000
  0.291494  0.070170  0.000000
  0.278586  0.076625  0.000000
  0.268096  0.075362  0.000000
  0.260992  0.086986  0.000000
  0.248508  0.088513  0.000000
  0.674988  0.024001  0.000000
  0.649328  0.024759  0.000000
  0.655900  0.014195  0.000000
  0.642634  0.012681  0.000000
  0.654132  0.068318  0.000000
  0.625564  0.011717  0.000000
  0.603129  0.026872  0.000000
  0.612808  0.031866  0.000000
  0.576556  0.029811  0.000000
  0.604457  0.033191  0.000000
  0.586854  0.024517  0.000000
  0.543911  0.027900  0.000000
  0.518799  0.023310  0.000000
  0.539809  0.045168  0.000000
  0.504160  0.023234  0.000000
  0.488604  0.025369  0.000000
  0.491166  0.047770  0.000000
  0.447338  0.041722  0.000000
  0.457703  0.042596  0.000000
  0.433988  0.031613  0.000000
  0.406496  0.042343  0.000000
  0.392797  0.036071  0.000000
  0.392636  0.053556  0.000000
  0.355355  0.068330  0.000000
  0.343570  0.058615  0.000000
  0.330418  0.068803  0.000000
  0.305377  0.066347  0.000000
  0.296803  0.081648  0.000000
  0.281787  0.083293  0.000000
  0.270519  0.085081  0.000000
  0.681795  0.021934  0.000000
  0.687643  0.062606  0.000000
  0.676468  0.044123  0.000000
  0.681381  0.033995  0.000000
  0.675382  0.058939  0.000000
  0.665983  0.014636  0.000000
  0.634221  0.011968  0.000000
  0.644557  0.049477  0.000000
  0.620937  0.038125  0.000000
  0.632895  0.024022  0.000000
  0.628346  0.039169  0.000000
  0.593157  0.012903  0.000000
  0.608584  0.012864  0.000000
  0.594250  0.021389  0.000000
  0.531837  0.020701  0.000000
  0.556612  0.036367  0.000000
  0.533158  0.032678  0.000000
  0.502713  0.032785  0.000000
  0.502111  0.041640  0.000000
  0.482061  0.032160  0.000000
  0.471596  0.037764  0.000000
  0.439428  0.038098  0.000000
  0.418487  0.062919  0.000000
  0.402141  0.046169  0.000000
  0.374727  0.054807  0.000000
  0.379531  0.062704  0.000000
  0.335705  0.053646  0.000000
  0.327503  0.063294  0.000000
  0.308658  0.075790  0.000000
  0.292678  0.077365  0.000000
  0.689884  0.035085  0.000000
  0.689254  0.011634  0.000000
  0.689355  0.075426  0.000000
  0.686834  0.135370  0.000000
  0.680290  0.010122  0.000000
  0.669667  0.011639  0.000000
  0.672336  0.072740  0.000000
  0.673740  0.075390  0.000000
  0.660446  0.024522  0.000000
  0.668537  0.030758  0.000000
  0.667599  0.054037  0.000000
  0.658808  0.033421  0.000000
  0.644920  0.039536  0.000000
  0.656739  0.052985  0.000000
  0.632426  0.052843  0.000000
  0.604027  0.045528  0.000000
  0.593379  0.039890  0.000000
  0.581370  0.012274  0.000000
  0.562209  0.029679  0.000000
  0.535302  0.046344  0.000000
  0.530169  0.030468  0.000000
  0.491958  0.035793  0.000000
  0.466027  0.051478  0.000000
  0.468656  0.064722  0.000000
  0.434595  0.046674  0.000000
  0.410113  0.061098  0.000000
  0.389931  0.049736  0.000000
  0.364174  0.073934  0.000000
  0.346243  0.070380  0.000000
  0.313754  0.074615  0.000000
  0.681592  0.128694  0.000000
  0.661434  0.181097  0.000000
  0.690486  0.053278  0.000000
  0.682291  0.094338  0.000000
  0.629020  0.216824  0.000000
  0.686334  0.082472  0.000000
  0.688556  0.106383  0.000000
  0.673906  0.124064  0.000000
  0.690140  0.171442  0.000000
  0.674788  0.101743  0.000000
  0.668059  0.040806  0.000000
  0.681128  0.052540  0.000000
  0.663319  0.076983  0.000000
  0.654040  0.077131  0.000000
  0.660830  0.042756  0.000000
  0.665941  0.063935  0.000000
  0.641587  0.045505  0.000000
  0.630248  0.032605  0.000000
  0.611906  0.050268  0.000000
  0.589476  0.033896  0.000000
  0.561763  0.048473  0.000000
  0.546226  0.037757  0.000000
  0.518337  0.034104  0.000000
  0.518426  0.051821  0.000000
  0.461715  0.050289  0.000000
  0.448905  0.058838  0.000000
  0.426603  0.048115  0.000000
  0.407919  0.064160  0.000000
  0.367744  0.066477  0.000000
  0.337158  0.073808  0.000000
  0.687481  0.102161  0.000000
  0.623529  0.278052  0.000000
  0.687438  0.160139  0.000000
  0.684319  0.069094  0.000000
  0.686661  0.155208  0.000000
  0.686446  0.042402  0.000000
  0.688992  0.020656  0.000000
  0.688196  0.133462  0.000000
  0.666046  0.156059  0.000000
  0.686059  0.186891  0.000000
  0.657996  0.155940  0.000000
  0.669746  0.093444  0.000000
  0.660563  0.133648  0.000000
  0.666527  0.141271  0.000000
  0.680862  0.086203  0.000000
  0.667682  0.105131  0.000000
  0.664371  0.092669  0.000000
  0.656109  0.087674  0.000000
  0.647269  0.032302  0.000000
  0.643725  0.068317  0.000000
  0.628344  0.063315  0.000000
  0.618540  0.055612  0.000000
  0.571848  0.045540  0.000000
  0.574482  0.026902  0.000000
  0.530507  0.048861  0.000000
  0.512505  0.038309  0.000000
  0.481185  0.052323  0.000000
  0.447428  0.049950  0.000000
  0.400194  0.060680  0.000000
  0.384509  0.064750  0.000000
  0.620488  0.271424  0.000000
  0.670907  0.237973  0.000000
  0.688052  0.120778  0.000000
  0.594672  0.379067  0.000000
  0.676865  0.324523  0.000000
  0.606453  0.289341  0.000000
  0.663570  0.332843  0.000000
  0.665028  0.187966  0.000000
  0.667033  0.245518  0.000000
  0.655855  0.283269  0.000000
  0.659704  0.220579  0.000000
  0.679403  0.198963  0.000000
  0.682924  0.216803  0.000000
  0.649013  0.178825  0.000000
  0.668343  0.116025  0.000000
  0.676590  0.168415  0.000000
  0.682128  0.112829  0.000000
  0.677488  0.168035  0.000000
  0.653533  0.113427  0.000000
  0.648858  0.112589  0.000000
  0.644520  0.074012  0.000000
  0.638133  0.025309  0.000000
  0.656719  0.056036  0.000000
  0.578174  0.050511  0.000000
  0.584082  0.040657  0.000000
  0.568009  0.037827  0.000000
  0.520311  0.044391  0.000000
  0.487890  0.042277  0.000000
  0.439590  0.062867  0.000000
  0.431299  0.061892  0.000000
  0.548035  0.414127  0.000000
  0.633956  0.255628  0.000000
  0.522530  0.385228  0.000000
  0.500613  0.443452  0.000000
  0.586701  0.421014  0.000000
  0.641823  0.296099  0.000000
  0.665757  0.320628  0.000000
  0.675893  0.371858  0.000000
  0.673266  0.288025  0.000000
  0.650918  0.402011  0.000000
  0.618493  0.271292  0.000000
  0.664069  0.257833  0.000000
  0.679139  0.269389  0.000000
  0.679258  0.238101  0.000000
  0.655331  0.191394  0.000000
  0.688752  0.212937  0.000000
  0.650299  0.159241  0.000000
  0.648485  0.142435  0.000000
  0.664036  0.139967  0.000000
  0.668091  0.121463  0.000000
  0.653922  0.109518  0.000000
  0.655240  0.088009  0.000000
  0.642683  0.063010  0.000000
  0.624206  0.050470  0.000000
  0.602033  0.046494  0.000000
  0.549860  0.049763  0.000000
  0.502371  0.055939  0.000000
  0.507590  0.050807  0.000000
  0.454365  0.058795  0.000000
 -0.010000  0.500000  0.000000
 -0.010000  0.490000  0.000000
 -0.010000  0.480000  0.000000
 -0.010000  0.470000  0.000000
 -0.010000  0.460000  0.000000
 -0.010000  0.450000  0.000000
 -0.010000  0.440000  0.000000
 -0.010000  0.430000  0.000000
 -0.010000  0.420000  0.000000
 -0.010000  0.410000  0.000000
 -0.010000  0.400000  0.000000
 -0.010000  0.390000  0.000000
 -0.010000  0.380000  0.000000
 -0.010000  0.370000  0.000000
 -0.010000  0.360000  0.000000
 -0.010000  0.350000  0.000000
 -0.010000  0.340000  0.000000
 -0.010000  0.330000  0.000000
 -0.010000  0.320000  0.000000
 -0.010000  0.310000  0.000000
 -0.010000  0.300000  0.000000
 -0.010000  0.290000  0.000000
 -0.010000  0.280000  0.000000
 -0.010000  0.270000  0.000000
 -0.010000  0.260000  0.000000
 -0.010000  0.250000  0.000000
 -0.010000  0.240000  0.000000
 -0.010000  0.230000  0.000000
 -0.010000  0.220000  0.000000
 -0.010000  0.210000  0.000000
 -0.010000  0.200000  0.000000
 -0.010000  0.190000  0.000000
 -0.010000  0.180000  0.000000
 -0.010000  0.170000  0.000000
 -0.010000  0.160000  0.000000
 -0.010000  0.150000  0.000000
 -0.010000  0.140000  0.000000
 -0.010000  0.130000  0.000000
 -0.010000  0.120000  0.000000
 -0.010000  0.110000  0.000000
 -0.010000  0.100000  0.000000
 -0.010000  0.090000  0.000000
 -0.010000  0.080000  0.000000
 -0.010000  0.070000  0.000000
 -0.010000  0.060000  0.000000
 -0.010000  0.050000  0.000000
 -0.010000  0.040000  0.000000
 -0.010000  0.030000  0.000000
 -0.010000  0.020000  0.000000
 -0.010000  0.010000  0.000000
 -0.100000 -0.010000  0.000000
 -0.090000 -0.010000  0.000000
 -0.080000 -0.010000  0.000000
 -0.070000 -0.010000  0.000000
 -0.060000 -0.010000  0.000000
 -0.050000 -0.010000  0.000000
 -0.040000 -0.010000  0.000000
 -0.030000 -0.010000  0.000000
 -0.020000 -0.010000  0.000000