<?xml version="1.0" encoding="UTF-8"?>
<VTKFile type="UnstructuredGrid" version="1.0" byte_order="LittleEndian">
<UnstructuredGrid>
  <Piece NumberOfPoints="1555" NumberOfCells="1555">
      <PointData>
        <DataArray type="Int32" Name="Type" format="ascii">
 1 1 1 1 1 1 1 1 1 1
 1 1 1 1 1 1 1 1 1 1
 1 1 1 1 1 1 1 1 1 1
 1 1 1 1 1 1 1 1 1 1
 1 1 1 1 1 1 1 1 1 1
 1 1 1 1 1 1 1 1 1 1
 1 3 3 3 3 3 3 3 3 3
 3 3 3 3 3 3 3 3 3 3
 3 3 3 3 3 3 3 3 3 3
 3 3 3 3 3 3 3 3 3 3
 3 3 3 3 3 3 3 3 3 3
 3 3 3 3 3 3 3 3 3 3
 3 3 3 3 3 3 3 3 3 3
 1 1 1 1 1 1 1 1 1 1
 1 1 1 1 1 1 1 1 1 1
 1 1 1 1 1 1 1 1 1 1
 1 1 1 1 1 1 1 1 1 1
 1 1 1 1 1 1 1 1 1 1
 1 1 1 1 1 1 1 1 1 1
 1 2 2 2 2 2 2 2 2 2
 2 2 2 2 2 2 2 2 2 2
 2 2 2 2 2 2 2 2 2 2
 2 2 2 2 2 2 2 2 2 2
 2 2 2 2 2 2 2 2 2 2
 2 2 2 2 2 2 2 2 2 2
 2 2 2 2 2 2 2 2 2 2
 2 2 2 2 2 2 2 2 2 2
 2 2 2 2 2 2 2 2 2 2
 2 2 2 2 2 2 2 2 2 2
 2 2 2 2 2 2 2 2 2 2
 2 2 2 2 2 2 2 2 2 2
 2 2 2 2 2 2 2 2 2 2
 2 2 2 2 2 2 2 2 2 2
 2 2 2 2 2 2 2 2 2 2
 2 2 2 2 2 2 2 2 2 2
 2 2 2 2 2 2 2 2 2 2
 2 2 2 2 2 2 2 2 2 2
 2 2 2 2 2 2 2 2 2 2
 2 2 2 2 2 2 2 2 2 2
 2 2 2 2 2 2 2 2 2 2
 2 2 2 2 2 2 2 2 2 2
 2 2 2 2 2 2 2 2 2 2
 2 2 2 2 2 2 2 2 2 2
 2 2 2 2 2 2 2 2 2 2
 2 2 2 2 2 2 2 2 2 2
 2 2 2 2 2 2 2 2 2 2
 2 2 2 2 2 2 2 2 2 2
 2 2 2 2 2 2 2 2 2 2
 2 2 2 2 2 2 2 2 2 2
 2 2 2 2 2 2 2 2 2 2
 2 2 2 2 2 2 2 2 2 2
 2 2 2 2 2 2 2 2 2 2
 2 2 2 2 2 2 2 2 2 2
 2 2 2 2 2 2 2 2 2 2
 2 2 2 2 2 2 2 2 2 2
 2 2 2 2 2 2 2 2 2 2
 2 2 2 2 2 2 2 2 2 2
 2 2 2 2 2 2 2 2 2 2
 2 2 2 2 2 2 2 2 2 2
 2 2 2 2 2 2 2 2 2 2
 2 2 2 2 2 2 2 2 2 2
 2 2 2 2 2 2 2 2 2 2
 2 2 2 2 2 2 2 2 2 2
 2 2 2 2 2 2 2 2 2 2
 2 2 2 2 2 2 2 2 2 2
 2 2 2 2 2 2 2 2 2 2
 2 2 2 2 2 2 2 2 2 2
 2 2 2 2 2 2 2 2 2 2
 2 2 2 2 2 2 2 2 2 2
 2 2 2 2 2 2 2 2 2 2
 2 2 2 2 2 2 2 2 2 2
 2 2 2 2 2 2 2 2 2 2
 2 2 2 2 2 2 2 2 2 2
 2 2 2 2 2 2 2 2 2 2
 2 2 2 2 2 2 2 2 2 2
 2 2 2 2 2 2 2 2 2 2
 2 2 2 2 2 2 2 2 2 2
 2 2 2 2 2 2 2 2 2 2
 2 2 2 2 2 2 2 2 2 2
 2 0 0 0 0 0 0 0 0 0
 0 0 0 0 0 0 0 0 0 0
 0 0 0 0 0 0 0 0 0 0
 0 0 0 0 0 0 0 0 0 0
 0 0 0 0 0 0 0 0 0 0
 0 0 0 0 0 0 0 0 0 0
 0 0 0 0 0 0 0 0 0 0
 0 0 0 0 0 0 0 0 0 0
 0 0 0 0 0 0 0 0 0 0
 0 0 0 0 0 0 0 0 0 0
 0 0 0 0 0 0 0 0 0 0
 0 0 0 0 0 0 0 0 0 0
 0 0 0 0 0 0 0 0 0 0
 0 0 0 0 0 0 0 0 0 0
 0 0 0 0 0 0 0 0 0 0
 0 0 0 0 0 0 0 0 0 0
 0 0 0 0 0 0 0 0 0 0
 0 0 0 0 0 0 0 0 0 0
 0 0 0 0 0 0 0 0 0 0
 0 0 0 0 0 0 0 0 0 0
 0 0 0 0 0 0 0 0 0 0
 0 0 0 0 0 0 0 0 0 0
 0 0 0 0 0 0 0 0 0 0
 0 0 0 0 0 0 0 0 0 0
 0 0 0 0 0 0 0 0 0 0
 0 0 0 0 0 0 0 0 0 0
 0 0 0 0 0 0 0 0 0 0
 0 0 0 0 0 0 0 0 0 0
 0 0 0 0 0 0 0 0 0 0
 0 0 0 0 0 0 0 0 0 0
 0 0 0 0 0 0 0 0 0 0
 0 0 0 0 0 0 0 0 0 0
 0 0 0 0 0 0 0 0 0 0
 0 0 0 0 0 0 0 0 0 0
 0 0 0 0 0 0 0 0 0 0
 0 0 0 0 0 0 0 0 0 0
 0 0 0 0 0 0 0 0 0 0
 0 0 0 0 0 0 0 0 0 0
 0 0 0 0 0 0 0 0 0 0
 0 0 0 0 0 0 0 0 0 0
 0 0 0 0 0 0 0 0 0 0
 0 0 0 0 0 0 0 0 0 0
 0 0 0 0 0 0 0 0 0 0
 0 0 0 0 0 0 0 0 0 0
 0 0 0 0 0 0 0 0 0 0
 0 0 0 0 0 0 0 0 0 0
 0 0 0 0 0 0 0 0 0 0
 0 0 0 0 0 0 0 0 0 0
 0 0 0 0 0 0 0 0 0 0
 0 0 0 0 0 0 0 0 0 0
 0 0 0 0 0 0 0 0 0 0
 0 0 0 0 0 0 0 0 0 0
 0 0 0 0 0 0 0 0 0 0
 0 0 0 0 0 0 0 0 0 0
 0 0 0 0 0 0 0 0 0 0
 0 0 0 0 0 0 0 0 0 0
 0 0 0 0 0 0 0 0 0 0
 0 0 0 0 0 0 0 0 0 0
 0 0 0 0 0 0 0 0 0 0
 0 0 0 0 0 0 0 0 0 0
 0 0 0 0 0 0 0 0 0 0
 0 0 0 0 0 0 0 0 0 0
 0 0 0 0 0 0 0 0 0 0
 0 0 0 0 0 0 0 0 0 0
 0 0 0 0 0 0 0 0 0 0
 0 0 0 0 0 0 0 0 0 0
 0 0 0 0 0 0 0 0 0 0
 0 0 0 0 0 0 0 0 0 0
 0 0 0 0 0 0 0 0 0 0
 0 0 0 0 0 0 0 0 0 0
 0 0 0 0 0 0 0 0 0 0
 0 0 0 0 0 0 0 0 0 0
 0 0 0 0 0 0 0 0 0 0
 0 0 0 0 0 0 0 0 0 0
 0 0 0 0 0 0 0 0 0 0
 0 0 0 0 0 0 0 0 0 0
 0 0 0 0 0
        </DataArray>
      </PointData>
      <Points>
        <DataArray type="Float32" NumberOfComponents="3" format="ascii">
  0.000000  0.500000  0.000000
  0.000000  0.490000  0.000000
  0.000000  0.480000  0.000000
  0.000000  0.470000  0.000000
  0.000000  0.460000  0.000000
  0.000000  0.450000  0.000000
  0.000000  0.440000  0.000000
  0.000000  0.430000  0.000000
  0.000000  0.420000  0.000000
  0.000000  0.410000  0.000000
  0.000000  0.400000  0.000000
  0.000000  0.390000  0.000000
  0.000000  0.380000  0.000000
  0.000000  0.370000  0.000000
  0.000000  0.360000  0.000000
  0.000000  0.350000  0.000000
  0.000000  0.340000  0.000000
  0.000000  0.330000  0.000000
  0.000000  0.320000  0.000000
  0.000000  0.310000  0.000000
  0.000000  0.300000  0.000000
  0.000000  0.290000  0.000000
  0.000000  0.280000  0.000000
  0.000000  0.270000  0.000000
  0.000000  0.260000  0.000000
  0.000000  0.250000  0.000000
  0.000000  0.240000  0.000000
  0.000000  0.230000  0.000000
  0.000000  0.220000  0.000000
  0.000000  0.210000  0.000000
  0.000000  0.200000  0.000000
  0.000000  0.190000  0.000000
  0.000000  0.180000  0.000000
  0.000000  0.170000  0.000000
  0.000000  0.160000  0.000000
  0.000000  0.150000  0.000000
  0.000000  0.140000  0.000000
  0.000000  0.130000  0.000000
  0.000000  0.120000  0.000000
  0.000000  0.110000  0.000000
  0.000000  0.100000  0.000000
  0.000000  0.090000  0.000000
  0.000000  0.080000  0.000000
  0.000000  0.070000  0.000000
  0.000000  0.060000  0.000000
  0.000000  0.050000  0.000000
  0.000000  0.040000  0.000000
  0.000000  0.030000  0.000000
  0.000000  0.020000  0.000000
  0.000000  0.010000  0.000000
 -0.100000  0.000000  0.000000
 -0.090000  0.000000  0.000000
 -0.080000  0.000000  0.000000
 -0.070000  0.000000  0.000000
 -0.060000  0.000000  0.000000
 -0.050000  0.000000  0.000000
 -0.040000  0.000000  0.000000
 -0.030000  0.000000  0.000000
 -0.020000  0.000000  0.000000
 -0.010000  0.000000  0.000000
 -0.000000  0.000000  0.000000
  0.010000  0.000000  0.000000
  0.020000  0.000000  0.000000
  0.030000  0.000000  0.000000
  0.040000  0.000000  0.000000
  0.050000  0.000000  0.000000
  0.060000  0.000000  0.000000
  0.070000  0.000000  0.000000
  0.080000  0.000000  0.000000
  0.090000  0.000000  0.000000
  0.100000  0.000000  0.000000
  0.110000  0.000000  0.000000
  0.120000  0.000000  0.000000
  0.130000  0.000000  0.000000
  0.140000  0.000000  0.000000
  0.150000  0.000000  0.000000
  0.160000  0.000000  0.000000
  0.170000  0.000000  0.000000
  0.180000  0.000000  0.000000
  0.190000  0.000000  0.000000
  0.200000  0.000000  0.000000
  0.210000  0.000000  0.000000
  0.220000  0.000000  0.000000
  0.230000  0.000000  0.000000
  0.240000  0.000000  0.000000
  0.250000  0.000000  0.000000
  0.260000  0.000000  0.000000
  0.270000  0.000000  0.000000
  0.280000  0.000000  0.000000
  0.290000  0.000000  0.000000
  0.300000  0.000000  0.000000
  0.310000  0.000000  0.000000
  0.320000  0.000000  0.000000
  0.330000  0.000000  0.000000
  0.340000  0.000000  0.000000
  0.350000  0.000000  0.000000
  0.360000  0.000000  0.000000
  0.370000  0.000000  0.000000
  0.380000  0.000000  0.000000
  0.390000  0.000000  0.000000
  0.400000  0.000000  0.000000
  0.410000  0.000000  0.000000
  0.420000  0.000000  0.000000
  0.430000  0.000000  0.000000
  0.440000  0.000000  0.000000
  0.450000  0.000000  0.000000
  0.460000  0.000000  0.000000
  0.470000  0.000000  0.000000
  0.480000  0.000000  0.000000
  0.490000  0.000000  0.000000
  0.500000  0.000000  0.000000
  0.510000  0.000000  0.000000
  0.520000  0.000000  0.000000
  0.530000  0.000000  0.000000
  0.540000  0.000000  0.000000
  0.550000  0.000000  0.000000
  0.560000  0.000000  0.000000
  0.570000  0.000000  0.000000
  0.580000  0.000000  0.000000
  0.590000  0.000000  0.000000
  0.600000  0.000000  0.000000
  0.610000  0.000000  0.000000
  0.620000  0.000000  0.000000
  0.630000  0.000000  0.000000
  0.640000  0.000000  0.000000
  0.650000  0.000000  0.000000
  0.660000  0.000000  0.000000
  0.670000  0.000000  0.000000
  0.680000  0.000000  0.000000
  0.690000  0.000000  0.000000
  0.700000  0.000000  0.000000
  0.710000  0.000000  0.000000
  0.720000  0.000000  0.000000
  0.730000  0.000000  0.000000
  0.740000  0.000000  0.000000
  0.750000  0.000000  0.000000
  0.760000  0.000000  0.000000
  0.770000  0.000000  0.000000
  0.780000  0.000000  0.000000
  0.790000  0.000000  0.000000
  0.800000  0.000000  0.000000
  0.700000  0.010000  0.000000
  0.700000  0.020000  0.000000
  0.700000  0.030000  0.000000
  0.700000  0.040000  0.000000
  0.700000  0.050000  0.000000
  0.700000  0.060000  0.000000
  0.700000  0.070000  0.000000
  0.700000  0.080000  0.000000
  0.700000  0.090000  0.000000
  0.700000  0.100000  0.000000
  0.700000  0.110000  0.000000
  0.700000  0.120000  0.000000
  0.700000  0.130000  0.000000
  0.700000  0.140000  0.000000
  0.700000  0.150000  0.000000
  0.700000  0.160000  0.000000
  0.700000  0.170000  0.000000
  0.700000  0.180000  0.000000
  0.700000  0.190000  0.000000
  0.700000  0.200000  0.000000
  0.700000  0.210000  0.000000
  0.700000  0.220000  0.000000
  0.700000  0.230000  0.000000
  0.700000  0.240000  0.000000
  0.700000  0.250000  0.000000
  0.700000  0.260000  0.000000
  0.700000  0.270000  0.000000
  0.700000  0.280000  0.000000
  0.700000  0.290000  0.000000
  0.700000  0.300000  0.000000
  0.700000  0.310000  0.000000
  0.700000  0.320000  0.000000
  0.700000  0.330000  0.000000
  0.700000  0.340000  0.000000
  0.700000  0.350000  0.000000
  0.700000  0.360000  0.000000
  0.700000  0.370000  0.000000
  0.700000  0.380000  0.000000
  0.700000  0.390000  0.000000
  0.700000  0.400000  0.000000
  0.700000  0.410000  0.000000
  0.700000  0.420000  0.000000
  0.700000  0.430000  0.000000
  0.700000  0.440000  0.000000
  0.700000  0.450000  0.000000
  0.700000  0.460000  0.000000
  0.700000  0.470000  0.000000
  0.700000  0.480000  0.000000
  0.700000  0.490000  0.000000
  0.700000  0.500000  0.000000
  0.014044  0.008593  0.000000
  0.023460  0.016962  0.000000
  0.033466  0.015809  0.000000
  0.009216  0.014464  0.000000
  0.019141  0.025643  0.000000
  0.012272  0.024238  0.000000
  0.029929  0.026589  0.000000
  0.036439  0.031848  0.000000
  0.046054  0.031762  0.000000
  0.025354  0.036132  0.000000
  0.036593  0.041582  0.000000
  0.008450  0.033558  0.000000
  0.011674  0.042913  0.000000
  0.007541  0.054561  0.000000
  0.010450  0.067830  0.000000
  0.019592  0.066419  0.000000
  0.028480  0.074398  0.000000
  0.012129  0.076136  0.000000
  0.020816  0.089778  0.000000
  0.008719  0.084199  0.000000
  0.015148  0.094904  0.000000
  0.008902  0.100091  0.000000
  0.009777  0.111416  0.000000
  0.013011  0.117754  0.000000
  0.009344  0.126810  0.000000
  0.017385  0.133082  0.000000
  0.010871  0.136000  0.000000
  0.020585  0.144280  0.000000
  0.009769  0.148863  0.000000
  0.024539  0.144206  0.000000
  0.042346  0.008448  0.000000
  0.027870  0.008933  0.000000
  0.053353  0.010259  0.000000
  0.042506  0.019800  0.000000
  0.059711  0.013167  0.000000
  0.059417  0.028338  0.000000
  0.074840  0.021366  0.000000
  0.048189  0.020951  0.000000
  0.052217  0.047768  0.000000
  0.046852  0.040728  0.000000
  0.037559  0.052520  0.000000
  0.019201  0.040619  0.000000
  0.046758  0.055774  0.000000
  0.030104  0.047996  0.000000
  0.049145  0.063540  0.000000
  0.016889  0.057855  0.000000
  0.020332  0.051303  0.000000
  0.031007  0.065763  0.000000
  0.041764  0.075875  0.000000
  0.021396  0.080565  0.000000
  0.037970  0.091975  0.000000
  0.031945  0.093298  0.000000
  0.021177  0.102774  0.000000
  0.031787  0.104725  0.000000
  0.021836  0.110092  0.000000
  0.031415  0.117779  0.000000
  0.024791  0.120648  0.000000
  0.030418  0.127699  0.000000
  0.029079  0.133564  0.000000
  0.034004  0.145666  0.000000
  0.086085  0.008453  0.000000
  0.069180  0.008143  0.000000
  0.076640  0.014330  0.000000
  0.063785  0.020867  0.000000
  0.085777  0.023442  0.000000
  0.099289  0.021855  0.000000
  0.115734  0.025138  0.000000
  0.088792  0.035516  0.000000
  0.080821  0.044690  0.000000
  0.057714  0.033031  0.000000
  0.069351  0.043487  0.000000
  0.075971  0.034801  0.000000
  0.059054  0.056346  0.000000
  0.058954  0.073277  0.000000
  0.072950  0.068219  0.000000
  0.032020  0.060033  0.000000
  0.058469  0.075730  0.000000
  0.044185  0.068369  0.000000
  0.045340  0.081528  0.000000
  0.031756  0.082995  0.000000
  0.051746  0.088295  0.000000
  0.049743  0.093778  0.000000
  0.046538  0.103072  0.000000
  0.038303  0.106044  0.000000
  0.048801  0.112956  0.000000
  0.043107  0.118530  0.000000
  0.043986  0.124545  0.000000
  0.045881  0.131880  0.000000
  0.044493  0.138716  0.000000
  0.041510  0.143689  0.000000
  0.116818  0.010444  0.000000
  0.099921  0.009946  0.000000
  0.116807  0.019544  0.000000
  0.089168  0.015886  0.000000
  0.116352  0.039445  0.000000
  0.106959  0.010505  0.000000
  0.109459  0.033587  0.000000
  0.101177  0.024279  0.000000
  0.096444  0.046861  0.000000
  0.072821  0.031052  0.000000
  0.104638  0.048067  0.000000
  0.068189  0.051355  0.000000
  0.096075  0.054747  0.000000
  0.059692  0.043173  0.000000
  0.063636  0.062850  0.000000
  0.084066  0.049077  0.000000
  0.073758  0.059603  0.000000
  0.080736  0.072646  0.000000
  0.071111  0.079358  0.000000
  0.064238  0.085453  0.000000
  0.076374  0.091678  0.000000
  0.062537  0.093606  0.000000
  0.056944  0.105635  0.000000
  0.067080  0.099783  0.000000
  0.062329  0.111058  0.000000
  0.060709  0.118143  0.000000
  0.062756  0.123728  0.000000
  0.060759  0.131210  0.000000
  0.056941  0.140229  0.000000
  0.059635  0.142589  0.000000
  0.140420  0.008730  0.000000
  0.126824  0.009940  0.000000
  0.142607  0.016454  0.000000
  0.131614  0.014948  0.000000
  0.152884  0.017553  0.000000
  0.128704  0.025584  0.000000
  0.125397  0.030096  0.000000
  0.137793  0.030274  0.000000
  0.092020  0.034578  0.000000
  0.133684  0.042616  0.000000
  0.103303  0.037215  0.000000
  0.124417  0.042400  0.000000
  0.116464  0.048834  0.000000
  0.106399  0.059019  0.000000
  0.114365  0.066616  0.000000
  0.084032  0.059657  0.000000
  0.099041  0.065729  0.000000
  0.088498  0.064317  0.000000
  0.095785  0.084330  0.000000
  0.088458  0.077877  0.000000
  0.078760  0.083768  0.000000
  0.088921  0.090879  0.000000
  0.084021  0.099582  0.000000
  0.074335  0.103140  0.000000
  0.081642  0.108298  0.000000
  0.078069  0.117158  0.000000
  0.075608  0.119758  0.000000
  0.074946  0.130577  0.000000
  0.073157  0.135869  0.000000
  0.068076  0.141819  0.000000
  0.163741  0.010702  0.000000
  0.155455  0.008965  0.000000
  0.175748  0.022242  0.000000
  0.161885  0.022704  0.000000
  0.197258  0.017061  0.000000
  0.167844  0.028317  0.000000
  0.187448  0.014539  0.000000
  0.144807  0.025672  0.000000
  0.154716  0.028985  0.000000
  0.169595  0.038053  0.000000
  0.154442  0.043672  0.000000
  0.157980  0.036959  0.000000
  0.143340  0.036842  0.000000
  0.129037  0.056440  0.000000
  0.116944  0.055709  0.000000
  0.122408  0.065999  0.000000
  0.107350  0.072011  0.000000
  0.128577  0.070710  0.000000
  0.097850  0.074649  0.000000
  0.114171  0.080187  0.000000
  0.106060  0.085498  0.000000
  0.108171  0.092553  0.000000
  0.094893  0.096431  0.000000
  0.100656  0.102487  0.000000
  0.098164  0.109350  0.000000
  0.091875  0.113563  0.000000
  0.091123  0.120623  0.000000
  0.090768  0.126675  0.000000
  0.085649  0.135540  0.000000
  0.087912  0.138676  0.000000
  0.212581  0.011295  0.000000
  0.177664  0.008183  0.000000
  0.194851  0.008579  0.000000
  0.174039  0.014676  0.000000
  0.233359  0.027566  0.000000
  0.206643  0.013933  0.000000
  0.210826  0.025296  0.000000
  0.190779  0.024902  0.000000
  0.181082  0.028884  0.000000
  0.187811  0.037299  0.000000
  0.178708  0.039073  0.000000
  0.183354  0.049156  0.000000
  0.162187  0.049053  0.000000
  0.139713  0.045757  0.000000
  0.148391  0.052303  0.000000
  0.133679  0.055349  0.000000
  0.140443  0.064271  0.000000
  0.141950  0.068136  0.000000
  0.133170  0.076562  0.000000
  0.121724  0.082135  0.000000
  0.133161  0.086462  0.000000
  0.121237  0.089936  0.000000
  0.116133  0.096292  0.000000
  0.120013  0.104925  0.000000
  0.109990  0.106562  0.000000
  0.113854  0.113640  0.000000
  0.109668  0.120760  0.000000
  0.105980  0.125751  0.000000
  0.102836  0.132099  0.000000
  0.098521  0.138087  0.000000
  0.229297  0.011742  0.000000
  0.219864  0.014472  0.000000
  0.265283  0.020348  0.000000
  0.232880  0.013397  0.000000
  0.272142  0.028550  0.000000
  0.243987  0.011031  0.000000
  0.248521  0.025856  0.000000
  0.221224  0.023601  0.000000
  0.236205  0.026060  0.000000
  0.221792  0.032816  0.000000
  0.206094  0.028820  0.000000
  0.196369  0.029794  0.000000
  0.197018  0.042398  0.000000
  0.169970  0.047149  0.000000
  0.175479  0.061988  0.000000
  0.161264  0.059642  0.000000
  0.151453  0.056839  0.000000
  0.168809  0.063053  0.000000
  0.152947  0.070042  0.000000
  0.159466  0.070398  0.000000
  0.149315  0.081881  0.000000
  0.142991  0.081685  0.000000
  0.143203  0.093686  0.000000
  0.134491  0.094345  0.000000
  0.136709  0.102105  0.000000
  0.130758  0.108692  0.000000
  0.126849  0.113606  0.000000
  0.123209  0.121806  0.000000
  0.118913  0.132690  0.000000
  0.116391  0.132766  0.000000
  0.272907  0.011477  0.000000
  0.255154  0.011430  0.000000
  0.279304  0.012747  0.000000
  0.262669  0.012195  0.000000
  0.294972  0.013533  0.000000
  0.286198  0.015721  0.000000
  0.280400  0.024627  0.000000
  0.259654  0.026688  0.000000
  0.248040  0.017877  0.000000
  0.252200  0.033550  0.000000
  0.226084  0.039175  0.000000
  0.224516  0.046773  0.000000
  0.219099  0.052868  0.000000
  0.206402  0.038848  0.000000
  0.208171  0.050309  0.000000
  0.181025  0.053322  0.000000
  0.196119  0.047750  0.000000
  0.192544  0.059268  0.000000
  0.185706  0.066117  0.000000
  0.176168  0.072213  0.000000
  0.174760  0.079510  0.000000
  0.161246  0.079090  0.000000
  0.161374  0.085985  0.000000
  0.155433  0.091182  0.000000
  0.155943  0.099645  0.000000
  0.147825  0.104900  0.000000
  0.144848  0.111190  0.000000
  0.138573  0.119845  0.000000
  0.132863  0.126399  0.000000
  0.130682  0.131781  0.000000
  0.331496  0.011074  0.000000
  0.297095  0.010316  0.000000
  0.342002  0.010334  0.000000
  0.309389  0.014104  0.000000
  0.344354  0.029624  0.000000
  0.315415  0.011338  0.000000
  0.341939  0.026587  0.000000
  0.295510  0.027506  0.000000
  0.277498  0.035455  0.000000
  0.266411  0.036439  0.000000
  0.259550  0.041301  0.000000
  0.255356  0.046179  0.000000
  0.215284  0.041096  0.000000
  0.241670  0.036652  0.000000
  0.239938  0.042261  0.000000
  0.235696  0.051723  0.000000
  0.215986  0.063435  0.000000
  0.207673  0.057672  0.000000
  0.208832  0.067882  0.000000
  0.196831  0.062315  0.000000
  0.200917  0.073272  0.000000
  0.190028  0.075282  0.000000
  0.186634  0.079899  0.000000
  0.175039  0.086753  0.000000
  0.173827  0.093351  0.000000
  0.167208  0.100413  0.000000
  0.161755  0.107936  0.000000
  0.157268  0.113367  0.000000
  0.150783  0.122681  0.000000
  0.147199  0.124935  0.000000
  0.372502  0.010698  0.000000
  0.333016  0.016788  0.000000
  0.391892  0.013571  0.000000
  0.360384  0.010729  0.000000
  0.385844  0.011426  0.000000
  0.350180  0.013556  0.000000
  0.362306  0.018434  0.000000
  0.349017  0.020272  0.000000
  0.326408  0.025798  0.000000
  0.315625  0.035589  0.000000
  0.320625  0.015234  0.000000
  0.288959  0.029838  0.000000
  0.285946  0.040954  0.000000
  0.288960  0.053183  0.000000
  0.275754  0.046303  0.000000
  0.256011  0.057421  0.000000
  0.246308  0.049327  0.000000
  0.239329  0.057905  0.000000
  0.239783  0.067177  0.000000
  0.228196  0.060513  0.000000
  0.221300  0.073401  0.000000
  0.215986  0.077331  0.000000
  0.202408  0.080747  0.000000
  0.202892  0.086206  0.000000
  0.192425  0.093504  0.000000
  0.187146  0.096738  0.000000
  0.175647  0.101418  0.000000
  0.172467  0.113297  0.000000
  0.170110  0.125747  0.000000
  0.161620  0.124213  0.000000
  0.440979  0.014310  0.000000
  0.414086  0.011705  0.000000
  0.451338  0.010733  0.000000
  0.425534  0.011913  0.000000
  0.437014  0.010672  0.000000
  0.403503  0.011128  0.000000
  0.401793  0.015556  0.000000
  0.381677  0.022915  0.000000
  0.374933  0.014995  0.000000
  0.364196  0.025635  0.000000
  0.357849  0.037029  0.000000
  0.327130  0.028307  0.000000
  0.311280  0.027895  0.000000
  0.313475  0.044708  0.000000
  0.296996  0.038806  0.000000
  0.293955  0.045120  0.000000
  0.284725  0.058614  0.000000
  0.271530  0.049840  0.000000
  0.276827  0.061320  0.000000
  0.265819  0.055447  0.000000
  0.253009  0.062808  0.000000
  0.254169  0.069921  0.000000
  0.229621  0.067700  0.000000
  0.232324  0.080879  0.000000
  0.219759  0.086645  0.000000
  0.206200  0.093523  0.000000
  0.198907  0.100230  0.000000
  0.193379  0.105740  0.000000
  0.184045  0.112674  0.000000
  0.178538  0.117279  0.000000
  0.538488  0.011909  0.000000
  0.492218  0.014432  0.000000
  0.500134  0.010720  0.000000
  0.473472  0.011054  0.000000
  0.486207  0.011616  0.000000
  0.458565  0.013233  0.000000
  0.437915  0.026047  0.000000
  0.438210  0.024570  0.000000
  0.422613  0.015019  0.000000
  0.405301  0.025456  0.000000
  0.388639  0.024372  0.000000
  0.375459  0.030878  0.000000
  0.363524  0.031571  0.000000
  0.367741  0.045343  0.000000
  0.331759  0.039143  0.000000
  0.333059  0.048323  0.000000
  0.325234  0.040902  0.000000
  0.305872  0.022297  0.000000
  0.305014  0.033978  0.000000
  0.316551  0.050187  0.000000
  0.300138  0.055422  0.000000
  0.282532  0.068254  0.000000
  0.266818  0.065574  0.000000
  0.244763  0.076112  0.000000
  0.238784  0.078061  0.000000
  0.226727  0.086756  0.000000
  0.219293  0.094746  0.000000
  0.212706  0.101179  0.000000
  0.205076  0.115545  0.000000
  0.193234  0.113711  0.000000
  0.581659  0.011526  0.000000
  0.545872  0.013701  0.000000
  0.559135  0.011982  0.000000
  0.528874  0.013987  0.000000
  0.546770  0.028202  0.000000
  0.510074  0.012643  0.000000
  0.485204  0.025051  0.000000
  0.490650  0.034280  0.000000
  0.452889  0.021789  0.000000
  0.472478  0.028299  0.000000
  0.454026  0.034493  0.000000
  0.425238  0.026881  0.000000
  0.409691  0.028373  0.000000
  0.418017  0.039845  0.000000
  0.393503  0.032798  0.000000
  0.377031  0.038450  0.000000
  0.382391  0.051317  0.000000
  0.349597  0.040935  0.000000
  0.352517  0.052722  0.000000
  0.345032  0.040347  0.000000
  0.326935  0.056719  0.000000
  0.308635  0.052998  0.000000
  0.302279  0.061977  0.000000
  0.278474  0.076752  0.000000
  0.267154  0.074313  0.000000
  0.254481  0.082594  0.000000
  0.246855  0.093173  0.000000
  0.234914  0.097818  0.000000
  0.222165  0.107075  0.000000
  0.214074  0.108124  0.000000
  0.630226  0.010902  0.000000
  0.607085  0.016434  0.000000
  0.620234  0.013223  0.000000
  0.598168  0.010118  0.000000
  0.572943  0.027391  0.000000
  0.568031  0.011012  0.000000
  0.521982  0.010070  0.000000
  0.534144  0.038122  0.000000
  0.494030  0.026362  0.000000
  0.509815  0.015188  0.000000
  0.500857  0.028368  0.000000
  0.467168  0.012797  0.000000
  0.478455  0.017148  0.000000
  0.472070  0.029390  0.000000
  0.419387  0.027114  0.000000
  0.435332  0.037210  0.000000
  0.428182  0.037864  0.000000
  0.397800  0.033696  0.000000
  0.396982  0.048031  0.000000
  0.383587  0.038433  0.000000
  0.364534  0.046016  0.000000
  0.339950  0.051762  0.000000
  0.329653  0.062883  0.000000
  0.316560  0.063359  0.000000
  0.295571  0.067362  0.000000
  0.287410  0.077270  0.000000
  0.262930  0.077525  0.000000
  0.252965  0.087826  0.000000
  0.246170  0.105485  0.000000
  0.230820  0.102496  0.000000
  0.653357  0.012105  0.000000
  0.643927  0.010235  0.000000
  0.624883  0.018173  0.000000
  0.631715  0.039634  0.000000
  0.611723  0.011436  0.000000
  0.585361  0.012749  0.000000
  0.607211  0.027056  0.000000
  0.587002  0.026681  0.000000
  0.551056  0.014928  0.000000
  0.569403  0.016557  0.000000
  0.562022  0.023694  0.000000
  0.538102  0.028396  0.000000
  0.518514  0.026308  0.000000
  0.531157  0.019569  0.000000
  0.506498  0.038346  0.000000
  0.481155  0.043410  0.000000
  0.466135  0.040405  0.000000
  0.456786  0.024445  0.000000
  0.450426  0.037830  0.000000
  0.427174  0.052129  0.000000
  0.411384  0.039055  0.000000
  0.391179  0.047047  0.000000
  0.367138  0.057198  0.000000
  0.360377  0.062384  0.000000
  0.341454  0.060309  0.000000
  0.318816  0.068942  0.000000
  0.300712  0.073223  0.000000
  0.282102  0.087355  0.000000
  0.271173  0.094026  0.000000
  0.249349  0.096080  0.000000
  0.672180  0.027314  0.000000
  0.680123  0.037003  0.000000
  0.670756  0.015570  0.000000
  0.656625  0.025023  0.000000
  0.656630  0.048341  0.000000
  0.639238  0.016209  0.000000
  0.643315  0.022584  0.000000
  0.632881  0.026192  0.000000
  0.620830  0.053187  0.000000
  0.620330  0.031651  0.000000
  0.596758  0.016198  0.000000
  0.584362  0.024103  0.000000
  0.579388  0.039515  0.000000
  0.569609  0.033250  0.000000
  0.552663  0.028781  0.000000
  0.548961  0.039009  0.000000
  0.514829  0.039171  0.000000
  0.510905  0.027027  0.000000
  0.487535  0.041713  0.000000
  0.466319  0.037323  0.000000
  0.439070  0.044555  0.000000
  0.433655  0.051657  0.000000
  0.412315  0.047614  0.000000
  0.404198  0.064993  0.000000
  0.371411  0.066742  0.000000
  0.352850  0.058788  0.000000
  0.338240  0.068449  0.000000
  0.312728  0.072529  0.000000
  0.295515  0.086612  0.000000
  0.276091  0.086727  0.000000
  0.688399  0.013293  0.000000
  0.690322  0.076209  0.000000
  0.692697  0.033889  0.000000
  0.683053  0.009688  0.000000
  0.681216  0.024150  0.000000
  0.669481  0.014768  0.000000
  0.659872  0.010357  0.000000
  0.661243  0.028913  0.000000
  0.632372  0.034660  0.000000
  0.633391  0.058098  0.000000
  0.647216  0.043066  0.000000
  0.652255  0.029209  0.000000
  0.644964  0.038122  0.000000
  0.630494  0.054062  0.000000
  0.599233  0.030568  0.000000
  0.593167  0.034533  0.000000
  0.573784  0.042211  0.000000
  0.552324  0.048435  0.000000
  0.531918  0.034830  0.000000
  0.520220  0.048352  0.000000
  0.504298  0.044485  0.000000
  0.491296  0.059387  0.000000
  0.455720  0.054546  0.000000
  0.452450  0.045678  0.000000
  0.419021  0.054894  0.000000
  0.401335  0.049794  0.000000
  0.375788  0.069986  0.000000
  0.347407  0.077803  0.000000
  0.308260  0.083785  0.000000
  0.302206  0.082379  0.000000
  0.683231  0.065561  0.000000
  0.685131  0.039573  0.000000
  0.686054  0.021204  0.000000
  0.668183  0.125217  0.000000
  0.677495  0.138868  0.000000
  0.683199  0.100828  0.000000
  0.689264  0.110562  0.000000
  0.684540  0.055455  0.000000
  0.674070  0.047747  0.000000
  0.677907  0.057969  0.000000
  0.667266  0.049619  0.000000
  0.671461  0.037375  0.000000
  0.659410  0.040627  0.000000
  0.653119  0.062903  0.000000
  0.617419  0.027758  0.000000
  0.637185  0.049571  0.000000
  0.606712  0.035985  0.000000
  0.610143  0.047734  0.000000
  0.581362  0.055352  0.000000
  0.573502  0.052086  0.000000
  0.539850  0.058011  0.000000
  0.523201  0.028899  0.000000
  0.524188  0.054564  0.000000
  0.474583  0.052434  0.000000
  0.461141  0.056310  0.000000
  0.450523  0.055699  0.000000
  0.416970  0.064451  0.000000
  0.379336  0.057263  0.000000
  0.343774  0.078507  0.000000
  0.330756  0.075699  0.000000
  0.636690  0.180895  0.000000
  0.692059  0.058255  0.000000
  0.636663  0.152984  0.000000
  0.688385  0.266913  0.000000
  0.641910  0.159195  0.000000
  0.679266  0.128876  0.000000
  0.677349  0.087900  0.000000
  0.682318  0.084071  0.000000
  0.689396  0.132626  0.000000
  0.680398  0.095903  0.000000
  0.689165  0.120578  0.000000
  0.674291  0.076350  0.000000
  0.666394  0.082056  0.000000
  0.666504  0.077102  0.000000
  0.669021  0.059913  0.000000
  0.659654  0.069256  0.000000
  0.648381  0.055431  0.000000
  0.620496  0.042505  0.000000
  0.594467  0.046299  0.000000
  0.602814  0.046900  0.000000
  0.586780  0.045494  0.000000
  0.560511  0.039343  0.000000
  0.541559  0.044797  0.000000
  0.520117  0.052201  0.000000
  0.498853  0.052301  0.000000
  0.479474  0.052081  0.000000
  0.433926  0.059643  0.000000
  0.406324  0.061848  0.000000
  0.383800  0.066203  0.000000
  0.364345  0.075061  0.000000
 -0.010000  0.500000  0.000000
 -0.010000  0.490000  0.000000
 -0.010000  0.480000  0.000000
 -0.010000  0.470000  0.000000
 -0.010000  0.460000  0.000000
 -0.010000  0.450000  0.000000
 -0.010000  0.440000  0.000000
 -0.010000  0.430000  0.000000
 -0.010000  0.420000  0.000000
 -0.010000  0.410000  0.000000
 -0.010000  0.400000  0.000000
 -0.010000  0.390000  0.000000
 -0.010000  0.380000  0.000000
 -0.010000  0.370000  0.000000
 -0.010000  0.360000  0.000000
 -0.010000  0.350000  0.000000
 -0.010000  0.340000  0.000000
 -0.010000  0.330000  0.000000
 -0.010000  0.320000  0.000000
 -0.010000  0.310000  0.000000
 -0.010000  0.300000  0.000000
 -0.010000  0.290000  0.000000
 -0.010000  0.280000  0.000000
 -0.010000  0.270000  0.000000
 -0.010000  0.260000  0.000000
 -0.010000  0.250000  0.000000
 -0.010000  0.240000  0.000000
 -0.010000  0.230000  0.000000
 -0.010000  0.220000  0.000000
 -0.010000  0.210000  0.000000
 -0.010000  0.200000  0.000000
 -0.010000  0.190000  0.000000
 -0.010000  0.180000  0.000000
 -0.010000  0.170000  0.000000
 -0.010000  0.160000  0.000000
 -0.010000  0.150000  0.000000
 -0.010000  0.140000  0.000000
 -0.010000  0.130000  0.000000
 -0.010000  0.120000  0.000000
 -0.010000  0.110000  0.000000
 -0.010000  0.100000  0.000000
 -0.010000  0.090000  0.000000
 -0.010000  0.080000  0.000000
 -0.010000  0.070000  0.000000
 -0.010000  0.060000  0.000000
 -0.010000  0.050000  0.000000
 -0.010000  0.040000  0.000000
 -0.010000  0.030000  0.000000
 -0.010000  0.020000  0.000000
 -0.010000  0.010000  0.000000
 -0.100000 -0.010000  0.000000
 -0.090000 -0.010000  0.000000
 -0.080000 -0.010000  0.000000
 -0.070000 -0.010000  0.000000
 -0.060000 -0.010000  0.000000
 -0.050000 -0.010000  0.000000
 -0.040000 -0.010000  0.000000
 -0.030000 -0.010000  0.000000