<?xml version="1.0" encoding="UTF-8"?>
<VTKFile type="UnstructuredGrid" version="1.0" byte_order="LittleEndian">
<UnstructuredGrid>
  <Piece NumberOfPoints="1555" NumberOfCells="1555">
      <PointData>
        <DataArray type="Int32" Name="Type" format="ascii">
 1 1 1 1 1 1 1 1 1 1
 1 1 1 1 1 1 1 1 1 1
 1 1 1 1 1 1 1 1 1 1
 1 1 1 1 1 1 1 1 1 1
 1 1 1 1 1 1 1 1 1 1
 1 1 1 1 1 1 1 1 1 1
 1 3 3 3 3 3 3 3 3 3
 3 3 3 3 3 3 3 3 3 3
 3 3 3 3 3 3 3 3 3 3
 3 3 3 3 3 3 3 3 3 3
 3 3 3 3 3 3 3 3 3 3
 3 3 3 3 3 3 3 3 3 3
 3 3 3 3 3 3 3 3 3 3
 1 1 1 1 1 1 1 1 1 1
 1 1 1 1 1 1 1 1 1 1
 1 1 1 1 1 1 1 1 1 1
 1 1 1 1 1 1 1 1 1 1
 1 1 1 1 1 1 1 1 1 1
 1 1 1 1 1 1 1 1 1 1
 1 2 2 2 2 2 2 2 2 2
 2 2 2 2 2 2 2 2 2 2
 2 2 2 2 2 2 2 2 2 2
 2 2 2 2 2 2 2 2 2 2
 2 2 2 2 2 2 2 2 2 2
 2 2 2 2 2 2 2 2 2 2
 2 2 2 2 2 2 2 2 2 2
 2 2 2 2 2 2 2 2 2 2
 2 2 2 2 2 2 2 2 2 2
 2 2 2 2 2 2 2 2 2 2
 2 2 2 2 2 2 2 2 2 2
 2 2 2 2 2 2 2 2 2 2
 2 2 2 2 2 2 2 2 2 2
 2 2 2 2 2 2 2 2 2 2
 2 2 2 2 2 2 2 2 2 2
 2 2 2 2 2 2 2 2 2 2
 2 2 2 2 2 2 2 2 2 2
 2 2 2 2 2 2 2 2 2 2
 2 2 2 2 2 2 2 2 2 2
 2 2 2 2 2 2 2 2 2 2
 2 2 2 2 2 2 2 2 2 2
 2 2 2 2 2 2 2 2 2 2
 2 2 2 2 2 2 2 2 2 2
 2 2 2 2 2 2 2 2 2 2
 2 2 2 2 2 2 2 2 2 2
 2 2 2 2 2 2 2 2 2 2
 2 2 2 2 2 2 2 2 2 2
 2 2 2 2 2 2 2 2 2 2
 2 2 2 2 2 2 2 2 2 2
 2 2 2 2 2 2 2 2 2 2
 2 2 2 2 2 2 2 2 2 2
 2 2 2 2 2 2 2 2 2 2
 2 2 2 2 2 2 2 2 2 2
 2 2 2 2 2 2 2 2 2 2
 2 2 2 2 2 2 2 2 2 2
 2 2 2 2 2 2 2 2 2 2
 2 2 2 2 2 2 2 2 2 2
 2 2 2 2 2 2 2 2 2 2
 2 2 2 2 2 2 2 2 2 2
 2 2 2 2 2 2 2 2 2 2
 2 2 2 2 2 2 2 2 2 2
 2 2 2 2 2 2 2 2 2 2
 2 2 2 2 2 2 2 2 2 2
 2 2 2 2 2 2 2 2 2 2
 2 2 2 2 2 2 2 2 2 2
 2 2 2 2 2 2 2 2 2 2
 2 2 2 2 2 2 2 2 2 2
 2 2 2 2 2 2 2 2 2 2
 2 2 2 2 2 2 2 2 2 2
 2 2 2 2 2 2 2 2 2 2
 2 2 2 2 2 2 2 2 2 2
 2 2 2 2 2 2 2 2 2 2
 2 2 2 2 2 2 2 2 2 2
 2 2 2 2 2 2 2 2 2 2
 2 2 2 2 2 2 2 2 2 2
 2 2 2 2 2 2 2 2 2 2
 2 2 2 2 2 2 2 2 2 2
 2 2 2 2 2 2 2 2 2 2
 2 2 2 2 2 2 2 2 2 2
 2 2 2 2 2 2 2 2 2 2
 2 0 0 0 0 0 0 0 0 0
 0 0 0 0 0 0 0 0 0 0
 0 0 0 0 0 0 0 0 0 0
 0 0 0 0 0 0 0 0 0 0
 0 0 0 0 0 0 0 0 0 0
 0 0 0 0 0 0 0 0 0 0
 0 0 0 0 0 0 0 0 0 0
 0 0 0 0 0 0 0 0 0 0
 0 0 0 0 0 0 0 0 0 0
 0 0 0 0 0 0 0 0 0 0
 0 0 0 0 0 0 0 0 0 0
 0 0 0 0 0 0 0 0 0 0
 0 0 0 0 0 0 0 0 0 0
 0 0 0 0 0 0 0 0 0 0
 0 0 0 0 0 0 0 0 0 0
 0 0 0 0 0 0 0 0 0 0
 0 0 0 0 0 0 0 0 0 0
 0 0 0 0 0 0 0 0 0 0
 0 0 0 0 0 0 0 0 0 0
 0 0 0 0 0 0 0 0 0 0
 0 0 0 0 0 0 0 0 0 0
 0 0 0 0 0 0 0 0 0 0
 0 0 0 0 0 0 0 0 0 0
 0 0 0 0 0 0 0 0 0 0
 0 0 0 0 0 0 0 0 0 0
 0 0 0 0 0 0 0 0 0 0
 0 0 0 0 0 0 0 0 0 0
 0 0 0 0 0 0 0 0 0 0
 0 0 0 0 0 0 0 0 0 0
 0 0 0 0 0 0 0 0 0 0
 0 0 0 0 0 0 0 0 0 0
 0 0 0 0 0 0 0 0 0 0
 0 0 0 0 0 0 0 0 0 0
 0 0 0 0 0 0 0 0 0 0
 0 0 0 0 0 0 0 0 0 0
 0 0 0 0 0 0 0 0 0 0
 0 0 0 0 0 0 0 0 0 0
 0 0 0 0 0 0 0 0 0 0
 0 0 0 0 0 0 0 0 0 0
 0 0 0 0 0 0 0 0 0 0
 0 0 0 0 0 0 0 0 0 0
 0 0 0 0 0 0 0 0 0 0
 0 0 0 0 0 0 0 0 0 0
 0 0 0 0 0 0 0 0 0 0
 0 0 0 0 0 0 0 0 0 0
 0 0 0 0 0 0 0 0 0 0
 0 0 0 0 0 0 0 0 0 0
 0 0 0 0 0 0 0 0 0 0
 0 0 0 0 0 0 0 0 0 0
 0 0 0 0 0 0 0 0 0 0
 0 0 0 0 0 0 0 0 0 0
 0 0 0 0 0 0 0 0 0 0
 0 0 0 0 0 0 0 0 0 0
 0 0 0 0 0 0 0 0 0 0
 0 0 0 0 0 0 0 0 0 0
 0 0 0 0 0 0 0 0 0 0
 0 0 0 0 0 0 0 0 0 0
 0 0 0 0 0 0 0 0 0 0
 0 0 0 0 0 0 0 0 0 0
 0 0 0 0 0 0 0 0 0 0
 0 0 0 0 0 0 0 0 0 0
 0 0 0 0 0 0 0 0 0 0
 0 0 0 0 0 0 0 0 0 0
 0 0 0 0 0 0 0 0 0 0
 0 0 0 0 0 0 0 0 0 0
 0 0 0 0 0 0 0 0 0 0
 0 0 0 0 0 0 0 0 0 0
 0 0 0 0 0 0 0 0 0 0
 0 0 0 0 0 0 0 0 0 0
 0 0 0 0 0 0 0 0 0 0
 0 0 0 0 0 0 0 0 0 0
 0 0 0 0 0 0 0 0 0 0
 0 0 0 0 0 0 0 0 0 0
 0 0 0 0 0 0 0 0 0 0
 0 0 0 0 0 0 0 0 0 0
 0 0 0 0 0 0 0 0 0 0
 0 0 0 0 0
        </DataArray>
      </PointData>
      <Points>
        <DataArray type="Float32" NumberOfComponents="3" format="ascii">
  0.000000  0.500000  0.000000
  0.000000  0.490000  0.000000
  0.000000  0.480000  0.000000
  0.000000  0.470000  0.000000
  0.000000  0.460000  0.000000
  0.000000  0.450000  0.000000
  0.000000  0.440000  0.000000
  0.000000  0.430000  0.000000
  0.000000  0.420000  0.000000
  0.000000  0.410000  0.000000
  0.000000  0.400000  0.000000
  0.000000  0.390000  0.000000
  0.000000  0.380000  0.000000
  0.000000  0.370000  0.000000
  0.000000  0.360000  0.000000
  0.000000  0.350000  0.000000
  0.000000  0.340000  0.000000
  0.000000  0.330000  0.000000
  0.000000  0.320000  0.000000
  0.000000  0.310000  0.000000
  0.000000  0.300000  0.000000
  0.000000  0.290000  0.000000
  0.000000  0.280000  0.000000
  0.000000  0.270000  0.000000
  0.000000  0.260000  0.000000
  0.000000  0.250000  0.000000
  0.000000  0.240000  0.000000
  0.000000  0.230000  0.000000
  0.000000  0.220000  0.000000
  0.000000  0.210000  0.000000
  0.000000  0.200000  0.000000
  0.000000  0.190000  0.000000
  0.000000  0.180000  0.000000
  0.000000  0.170000  0.000000
  0.000000  0.160000  0.000000
  0.000000  0.150000  0.000000
  0.000000  0.140000  0.000000
  0.000000  0.130000  0.000000
  0.000000  0.120000  0.000000
  0.000000  0.110000  0.000000
  0.000000  0.100000  0.000000
  0.000000  0.090000  0.000000
  0.000000  0.080000  0.000000
  0.000000  0.070000  0.000000
  0.000000  0.060000  0.000000
  0.000000  0.050000  0.000000
  0.000000  0.040000  0.000000
  0.000000  0.030000  0.000000
  0.000000  0.020000  0.000000
  0.000000  0.010000  0.000000
 -0.100000  0.000000  0.000000
 -0.090000  0.000000  0.000000
 -0.080000  0.000000  0.000000
 -0.070000  0.000000  0.000000
 -0.060000  0.000000  0.000000
 -0.050000  0.000000  0.000000
 -0.040000  0.000000  0.000000
 -0.030000  0.000000  0.000000
 -0.020000  0.000000  0.000000
 -0.010000  0.000000  0.000000
 -0.000000  0.000000  0.000000
  0.010000  0.000000  0.000000
  0.020000  0.000000  0.000000
  0.030000  0.000000  0.000000
  0.040000  0.000000  0.000000
  0.050000  0.000000  0.000000
  0.060000  0.000000  0.000000
  0.070000  0.000000  0.000000
  0.080000  0.000000  0.000000
  0.090000  0.000000  0.000000
  0.100000  0.000000  0.000000
  0.110000  0.000000  0.000000
  0.120000  0.000000  0.000000
  0.130000  0.000000  0.000000
  0.140000  0.000000  0.000000
  0.150000  0.000000  0.000000
  0.160000  0.000000  0.000000
  0.170000  0.000000  0.000000
  0.180000  0.000000  0.000000
  0.190000  0.000000  0.000000
  0.200000  0.000000  0.000000
  0.210000  0.000000  0.000000
  0.220000  0.000000  0.000000
  0.230000  0.000000  0.000000
  0.240000  0.000000  0.000000
  0.250000  0.000000  0.000000
  0.260000  0.000000  0.000000
  0.270000  0.000000  0.000000
  0.280000  0.000000  0.000000
  0.290000  0.000000  0.000000
  0.300000  0.000000  0.000000
  0.310000  0.000000  0.000000
  0.320000  0.000000  0.000000
  0.330000  0.000000  0.000000
  0.340000  0.000000  0.000000
  0.350000  0.000000  0.000000
  0.360000  0.000000  0.000000
  0.370000  0.000000  0.000000
  0.380000  0.000000  0.000000
  0.390000  0.000000  0.000000
  0.400000  0.000000  0.000000
  0.410000  0.000000  0.000000
  0.420000  0.000000  0.000000
  0.430000  0.000000  0.000000
  0.440000  0.000000  0.000000
  0.450000  0.000000  0.000000
  0.460000  0.000000  0.000000
  0.470000  0.000000  0.000000
  0.480000  0.000000  0.000000
  0.490000  0.000000  0.000000
  0.500000  0.000000  0.000000
  0.510000  0.000000  0.000000
  0.520000  0.000000  0.000000
  0.530000  0.000000  0.000000
  0.540000  0.000000  0.000000
  0.550000  0.000000  0.000000
  0.560000  0.000000  0.000000
  0.570000  0.000000  0.000000
  0.580000  0.000000  0.000000
  0.590000  0.000000  0.000000
  0.600000  0.000000  0.000000
  0.610000  0.000000  0.000000
  0.620000  0.000000  0.000000
  0.630000  0.000000  0.000000
  0.640000  0.000000  0.000000
  0.650000  0.000000  0.000000
  0.660000  0.000000  0.000000
  0.670000  0.000000  0.000000
  0.680000  0.000000  0.000000
  0.690000  0.000000  0.000000
  0.700000  0.000000  0.000000
  0.710000  0.000000  0.000000
  0.720000  0.000000  0.000000
  0.730000  0.000000  0.000000
  0.740000  0.000000  0.000000
  0.750000  0.000000  0.000000
  0.760000  0.000000  0.000000
  0.770000  0.000000  0.000000
  0.780000  0.000000  0.000000
  0.790000  0.000000  0.000000
  0.800000  0.000000  0.000000
  0.700000  0.010000  0.000000
  0.700000  0.020000  0.000000
  0.700000  0.030000  0.000000
  0.700000  0.040000  0.000000
  0.700000  0.050000  0.000000
  0.700000  0.060000  0.000000
  0.700000  0.070000  0.000000
  0.700000  0.080000  0.000000
  0.700000  0.090000  0.000000
  0.700000  0.100000  0.000000
  0.700000  0.110000  0.000000
  0.700000  0.120000  0.000000
  0.700000  0.130000  0.000000
  0.700000  0.140000  0.000000
  0.700000  0.150000  0.000000
  0.700000  0.160000  0.000000
  0.700000  0.170000  0.000000
  0.700000  0.180000  0.000000
  0.700000  0.190000  0.000000
  0.700000  0.200000  0.000000
  0.700000  0.210000  0.000000
  0.700000  0.220000  0.000000
  0.700000  0.230000  0.000000
  0.700000  0.240000  0.000000
  0.700000  0.250000  0.000000
  0.700000  0.260000  0.000000
  0.700000  0.270000  0.000000
  0.700000  0.280000  0.000000
  0.700000  0.290000  0.000000
  0.700000  0.300000  0.000000
  0.700000  0.310000  0.000000
  0.700000  0.320000  0.000000
  0.700000  0.330000  0.000000
  0.700000  0.340000  0.000000
  0.700000  0.350000  0.000000
  0.700000  0.360000  0.000000
  0.700000  0.370000  0.000000
  0.700000  0.380000  0.000000
  0.700000  0.390000  0.000000
  0.700000  0.400000  0.000000
  0.700000  0.410000  0.000000
  0.700000  0.420000  0.000000
  0.700000  0.430000  0.000000
  0.700000  0.440000  0.000000
  0.700000  0.450000  0.000000
  0.700000  0.460000  0.000000
  0.700000  0.470000  0.000000
  0.700000  0.480000  0.000000
  0.700000  0.490000  0.000000
  0.700000  0.500000  0.000000
  0.009655  0.009656  0.000000
  0.016637  0.015124  0.000000
  0.028307  0.015818  0.000000
  0.008754  0.022382  0.000000
  0.019766  0.026517  0.000000
  0.011096  0.032256  0.000000
  0.026284  0.026285  0.000000
  0.023265  0.038346  0.000000
  0.031477  0.038933  0.000000
  0.011816  0.040202  0.000000
  0.024291  0.048534  0.000000
  0.009889  0.047679  0.000000
  0.010751  0.057451  0.000000
  0.013182  0.064821  0.000000
  0.007442  0.074483  0.000000
  0.014250  0.082357  0.000000
  0.015935  0.089489  0.000000
  0.008612  0.092217  0.000000
  0.014186  0.103219  0.000000
  0.010817  0.106588  0.000000
  0.011299  0.116729  0.000000
  0.010505  0.122597  0.000000
  0.011438  0.132188  0.000000
  0.011434  0.138586  0.000000
  0.010439  0.146404  0.000000
  0.013710  0.154350  0.000000
  0.009909  0.159809  0.000000
  0.016856  0.169699  0.000000
  0.008056  0.172205  0.000000
  0.018834  0.176482  0.000000
  0.037248  0.009393  0.000000
  0.023894  0.009139  0.000000
  0.046484  0.010584  0.000000
  0.038716  0.020910  0.000000
  0.045020  0.022728  0.000000
  0.045212  0.033860  0.000000
  0.059947  0.030553  0.000000
  0.036462  0.031716  0.000000
  0.042112  0.051091  0.000000
  0.034558  0.048285  0.000000
  0.036457  0.058928  0.000000
  0.020950  0.054703  0.000000
  0.034841  0.065103  0.000000
  0.024793  0.064170  0.000000
  0.038454  0.073014  0.000000
  0.020072  0.071860  0.000000
  0.024984  0.078379  0.000000
  0.029324  0.088572  0.000000
  0.028581  0.094710  0.000000
  0.024840  0.100816  0.000000
  0.026592  0.109371  0.000000
  0.026481  0.114539  0.000000
  0.024266  0.122658  0.000000
  0.026215  0.127837  0.000000
  0.024871  0.135539  0.000000
  0.026972  0.141872  0.000000
  0.025631  0.148985  0.000000
  0.026637  0.155778  0.000000
  0.026023  0.163036  0.000000
  0.025839  0.176583  0.000000
  0.068393  0.008920  0.000000
  0.054484  0.010594  0.000000
  0.062707  0.014725  0.000000
  0.054321  0.023462  0.000000
  0.065079  0.025437  0.000000
  0.073638  0.027237  0.000000
  0.088399  0.026982  0.000000
  0.065445  0.040497  0.000000
  0.069564  0.047470  0.000000
  0.047695  0.041134  0.000000
  0.061476  0.054051  0.000000
  0.051533  0.050578  0.000000
  0.049448  0.065691  0.000000
  0.048479  0.076795  0.000000
  0.054538  0.080667  0.000000
  0.034452  0.079254  0.000000
  0.048719  0.088737  0.000000
  0.041177  0.088612  0.000000
  0.044479  0.098225  0.000000
  0.040260  0.102856  0.000000
  0.041510  0.110164  0.000000
  0.041144  0.115625  0.000000
  0.041152  0.123237  0.000000
  0.040126  0.129031  0.000000
  0.040787  0.135842  0.000000
  0.040348  0.142908  0.000000
  0.039162  0.151421  0.000000
  0.038488  0.160577  0.000000
  0.036585  0.169667  0.000000
  0.034303  0.174222  0.000000
  0.091679  0.010093  0.000000
  0.083050  0.009648  0.000000
  0.095238  0.021392  0.000000
  0.074987  0.015231  0.000000
  0.097093  0.033617  0.000000
  0.082890  0.021175  0.000000
  0.087691  0.040945  0.000000
  0.079483  0.033719  0.000000
  0.078237  0.053858  0.000000
  0.056626  0.041081  0.000000
  0.085516  0.053920  0.000000
  0.066264  0.060205  0.000000
  0.077437  0.063698  0.000000
  0.052957  0.061477  0.000000
  0.060068  0.069434  0.000000
  0.069107  0.070849  0.000000
  0.063940  0.080944  0.000000
  0.064674  0.090100  0.000000
  0.059628  0.096190  0.000000
  0.057087  0.100499  0.000000
  0.058969  0.109570  0.000000
  0.057880  0.113067  0.000000
  0.056021  0.121354  0.000000
  0.056782  0.126628  0.000000
  0.055489  0.134567  0.000000
  0.053034  0.142162  0.000000
  0.051497  0.149660  0.000000
  0.049630  0.157532  0.000000
  0.048552  0.165515  0.000000
  0.049630  0.175029  0.000000
  0.114414  0.009815  0.000000
  0.101946  0.009407  0.000000
  0.113657  0.018521  0.000000
  0.103040  0.018318  0.000000
  0.123892  0.024595  0.000000
  0.107958  0.027464  0.000000
  0.102126  0.037560  0.000000
  0.114955  0.040346  0.000000
  0.076692  0.041194  0.000000
  0.103733  0.046553  0.000000
  0.092075  0.046634  0.000000
  0.101531  0.054078  0.000000
  0.094986  0.060202  0.000000
  0.083322  0.066571  0.000000
  0.089942  0.073080  0.000000
  0.075484  0.078121  0.000000
  0.084176  0.082787  0.000000
  0.074860  0.085770  0.000000
  0.078794  0.096423  0.000000
  0.074852  0.099444  0.000000
  0.073699  0.106395  0.000000
  0.073684  0.113355  0.000000
  0.072947  0.119591  0.000000
  0.070362  0.127650  0.000000
  0.068501  0.133310  0.000000
  0.065607  0.141664  0.000000
  0.064522  0.149148  0.000000
  0.064128  0.156915  0.000000
  0.062030  0.165342  0.000000
  0.059001  0.171897  0.000000
  0.135655  0.008789  0.000000
  0.123195  0.009535  0.000000
  0.140154  0.022962  0.000000
  0.127945  0.019049  0.000000
  0.158459  0.018991  0.000000
  0.132927  0.031082  0.000000
  0.148416  0.028188  0.000000
  0.115135  0.030763  0.000000
  0.127089  0.035898  0.000000
  0.129260  0.046911  0.000000
  0.126426  0.056208  0.000000
  0.118895  0.044876  0.000000
  0.114023  0.054108  0.000000
  0.105993  0.063677  0.000000
  0.096967  0.070010  0.000000
  0.105222  0.078328  0.000000
  0.093535  0.083229  0.000000
  0.101412  0.087336  0.000000
  0.090542  0.092965  0.000000
  0.093717  0.098604  0.000000
  0.090743  0.105710  0.000000
  0.090044  0.111480  0.000000
  0.086841  0.117776  0.000000
  0.084755  0.124563  0.000000
  0.083182  0.131900  0.000000
  0.081248  0.139503  0.000000
  0.078810  0.146371  0.000000
  0.075678  0.154290  0.000000
  0.072710  0.163438  0.000000
  0.074184  0.171408  0.000000
  0.164283  0.008637  0.000000
  0.148562  0.009158  0.000000
  0.154705  0.014077  0.000000
  0.139337  0.016464  0.000000
  0.182141  0.027823  0.000000
  0.170302  0.019581  0.000000
  0.160412  0.028429  0.000000
  0.151757  0.032966  0.000000
  0.139942  0.038174  0.000000
  0.148531  0.043851  0.000000
  0.137929  0.046835  0.000000
  0.146507  0.053888  0.000000
  0.130704  0.060975  0.000000
  0.116287  0.061063  0.000000
  0.125217  0.069882  0.000000
  0.110294  0.070806  0.000000
  0.119266  0.078358  0.000000
  0.113376  0.084664  0.000000
  0.113105  0.092561  0.000000
  0.107875  0.096595  0.000000
  0.107743  0.104348  0.000000
  0.105541  0.109971  0.000000
  0.103466  0.116476  0.000000
  0.101213  0.124154  0.000000
  0.097884  0.129835  0.000000
  0.094800  0.137589  0.000000
  0.090927  0.145848  0.000000
  0.088972  0.153208  0.000000
  0.087077  0.162167  0.000000
  0.084201  0.168430  0.000000
  0.189712  0.011972  0.000000
  0.177026  0.008741  0.000000
  0.201945  0.020531  0.000000
  0.177807  0.015427  0.000000
  0.211717  0.025160  0.000000
  0.192348  0.018608  0.000000
  0.201328  0.030565  0.000000
  0.172558  0.027701  0.000000
  0.185251  0.038272  0.000000
  0.168897  0.037177  0.000000
  0.166762  0.039310  0.000000
  0.157471  0.044116  0.000000
  0.158321  0.054791  0.000000
  0.142158  0.059285  0.000000
  0.141406  0.066991  0.000000
  0.141676  0.075175  0.000000
  0.127501  0.074891  0.000000
  0.137082  0.082624  0.000000
  0.128927  0.087526  0.000000
  0.129786  0.092624  0.000000
  0.125625  0.099931  0.000000
  0.123819  0.104755  0.000000
  0.120536  0.112027  0.000000
  0.117161  0.118750  0.000000
  0.113360  0.126094  0.000000
  0.108554  0.134370  0.000000
  0.105716  0.142352  0.000000
  0.102584  0.150204  0.000000
  0.099092  0.158995  0.000000
  0.097697  0.166597  0.000000
  0.214702  0.011637  0.000000
  0.198326  0.008693  0.000000
  0.226573  0.010307  0.000000
  0.209413  0.014159  0.000000
  0.238040  0.022368  0.000000
  0.222571  0.017764  0.000000
  0.221539  0.028413  0.000000
  0.206847  0.034588  0.000000
  0.188444  0.027845  0.000000
  0.198839  0.040139  0.000000
  0.186014  0.041963  0.000000
  0.174708  0.052672  0.000000
  0.178879  0.061547  0.000000
  0.162842  0.054150  0.000000
  0.169345  0.064147  0.000000
  0.153211  0.067200  0.000000
  0.160670  0.068610  0.000000
  0.151967  0.076020  0.000000
  0.152121  0.084738  0.000000
  0.145423  0.088755  0.000000
  0.144166  0.096239  0.000000
  0.140991  0.102297  0.000000
  0.136946  0.108728  0.000000
  0.132347  0.115938  0.000000
  0.127064  0.123601  0.000000
  0.123070  0.131503  0.000000
  0.119144  0.139808  0.000000
  0.115556  0.147172  0.000000
  0.111897  0.156822  0.000000
  0.109327  0.163122  0.000000
  0.256822  0.011662  0.000000
  0.234129  0.013052  0.000000
  0.266008  0.017455  0.000000
  0.244589  0.010183  0.000000
  0.265879  0.027438  0.000000
  0.245693  0.017301  0.000000
  0.253648  0.024040  0.000000
  0.230025  0.027722  0.000000
  0.222952  0.036946  0.000000
  0.215374  0.042317  0.000000
  0.206701  0.046773  0.000000
  0.205564  0.054476  0.000000
  0.176759  0.049679  0.000000
  0.193184  0.051513  0.000000
  0.191257  0.053769  0.000000
  0.187767  0.066830  0.000000
  0.181521  0.072338  0.000000
  0.169138  0.073766  0.000000
  0.170217  0.081360  0.000000
  0.164241  0.084067  0.000000
  0.162676  0.091986  0.000000
  0.158994  0.098093  0.000000
  0.154835  0.104240  0.000000
  0.148201  0.112407  0.000000
  0.142597  0.119474  0.000000
  0.137774  0.128105  0.000000
  0.133702  0.135311  0.000000
  0.128861  0.143864  0.000000
  0.125658  0.152581  0.000000
  0.122435  0.160290  0.000000
  0.295830  0.013944  0.000000
  0.263311  0.010973  0.000000
  0.303418  0.009664  0.000000
  0.282695  0.010404  0.000000
  0.298563  0.019550  0.000000
  0.280701  0.012521  0.000000
  0.275763  0.021826  0.000000
  0.270258  0.031579  0.000000
  0.253374  0.029962  0.000000
  0.253793  0.039946  0.000000
  0.241310  0.031908  0.000000
  0.231875  0.039428  0.000000
  0.222196  0.048428  0.000000
  0.225791  0.053825  0.000000
  0.212053  0.057657  0.000000
  0.208652  0.065655  0.000000
  0.194417  0.065046  0.000000
  0.200528  0.072896  0.000000
  0.191347  0.079422  0.000000
  0.185125  0.081784  0.000000
  0.181341  0.088462  0.000000
  0.178158  0.094764  0.000000
  0.172088  0.100784  0.000000
  0.164479  0.107817  0.000000
  0.158111  0.115771  0.000000
  0.153425  0.123093  0.000000
  0.147558  0.131680  0.000000
  0.143505  0.139453  0.000000
  0.138198  0.149512  0.000000
  0.134620  0.156173  0.000000
  0.342263  0.011129  0.000000
  0.318139  0.010656  0.000000
  0.345389  0.013849  0.000000
  0.329210  0.010360  0.000000
  0.333439  0.018216  0.000000
  0.312932  0.015147  0.000000
  0.309079  0.022622  0.000000
  0.301634  0.030656  0.000000
  0.287054  0.022433  0.000000
  0.285963  0.029240  0.000000
  0.274297  0.039122  0.000000
  0.259046  0.041397  0.000000
  0.242232  0.038929  0.000000
  0.253688  0.053492  0.000000
  0.237879  0.049403  0.000000
  0.232657  0.058243  0.000000
  0.229780  0.068652  0.000000
  0.221442  0.064703  0.000000
  0.219552  0.076765  0.000000
  0.210390  0.072635  0.000000
  0.204659  0.082398  0.000000
  0.201089  0.088087  0.000000
  0.192016  0.095447  0.000000
  0.182618  0.102777  0.000000
  0.175669  0.111109  0.000000
  0.169571  0.118962  0.000000
  0.163321  0.126738  0.000000
  0.157324  0.135183  0.000000
  0.152099  0.144578  0.000000
  0.148339  0.151744  0.000000
  0.417227  0.012996  0.000000
  0.377220  0.009576  0.000000
  0.384749  0.013656  0.000000
  0.363078  0.012954  0.000000
  0.374834  0.017733  0.000000
  0.357978  0.010460  0.000000
  0.343701  0.024568  0.000000
  0.338857  0.031686  0.000000
  0.324322  0.020222  0.000000
  0.316957  0.029544  0.000000
  0.305636  0.035046  0.000000
  0.293189  0.037091  0.000000
  0.284235  0.037280  0.000000
  0.286682  0.049444  0.000000
  0.267602  0.045778  0.000000
  0.264613  0.053667  0.000000
  0.256957  0.061465  0.000000
  0.244574  0.050589  0.000000
  0.244726  0.061986  0.000000
  0.242566  0.066865  0.000000
  0.232074  0.074791  0.000000
  0.223134  0.083512  0.000000
  0.211325  0.089387  0.000000
  0.199868  0.097598  0.000000
  0.194120  0.104635  0.000000
  0.186984  0.113645  0.000000
  0.178851  0.120045  0.000000
  0.171892  0.130335  0.000000
  0.166036  0.139400  0.000000
  0.160816  0.147604  0.000000
  0.453233  0.012940  0.000000
  0.422887  0.011369  0.000000
  0.433923  0.011153  0.000000
  0.405698  0.010258  0.000000
  0.419041  0.024062  0.000000
  0.394562  0.010664  0.000000
  0.376918  0.027279  0.000000
  0.378840  0.035572  0.000000
  0.352914  0.024292  0.000000
  0.355798  0.030099  0.000000
  0.349693  0.042545  0.000000
  0.327593  0.028560  0.000000
  0.319293  0.037167  0.000000
  0.323706  0.043477  0.000000
  0.306103  0.045072  0.000000
  0.293426  0.047102  0.000000
  0.293501  0.061030  0.000000
  0.277017  0.050527  0.000000
  0.277423  0.059572  0.000000
  0.268966  0.063701  0.000000
  0.257046  0.069358  0.000000
  0.245828  0.077188  0.000000
  0.234648  0.083253  0.000000
  0.221940  0.091039  0.000000
  0.215330  0.098615  0.000000
  0.206215  0.106616  0.000000
  0.195548  0.115459  0.000000
  0.189001  0.123821  0.000000
  0.180593  0.134347  0.000000
  0.175505  0.140830  0.000000
  0.497138  0.010037  0.000000
  0.471284  0.011522  0.000000
  0.483641  0.010008  0.000000
  0.466556  0.012113  0.000000
  0.441742  0.025573  0.000000
  0.445449  0.011471  0.000000
  0.401832  0.016281  0.000000
  0.416661  0.037385  0.000000
  0.386207  0.023166  0.000000
  0.395677  0.022845  0.000000
  0.392060  0.031934  0.000000
  0.363526  0.019929  0.000000
  0.368296  0.031733  0.000000
  0.364450  0.038359  0.000000
  0.335205  0.036286  0.000000
  0.335686  0.044713  0.000000
  0.329357  0.051276  0.000000
  0.313422  0.046367  0.000000
  0.309950  0.056766  0.000000
  0.300254  0.054119  0.000000
  0.284514  0.062050  0.000000
  0.270281  0.071420  0.000000
  0.257387  0.076902  0.000000
  0.249718  0.083501  0.000000
  0.236817  0.090592  0.000000
  0.226566  0.100195  0.000000
  0.213519  0.106645  0.000000
  0.204796  0.117948  0.000000
  0.196573  0.129366  0.000000
  0.188977  0.134931  0.000000
  0.529458  0.012528  0.000000
  0.518731  0.009205  0.000000
  0.492063  0.015660  0.000000
  0.491711  0.028018  0.000000
  0.482290  0.019213  0.000000
  0.457653  0.015531  0.000000
  0.477138  0.024819  0.000000
  0.461220  0.026454  0.000000
  0.435126  0.015490  0.000000
  0.440515  0.024642  0.000000
  0.426760  0.031076  0.000000
  0.413734  0.021779  0.000000
  0.406975  0.032831  0.000000
  0.404556  0.031036  0.000000
  0.388382  0.042608  0.000000
  0.374140  0.042979  0.000000
  0.366032  0.050500  0.000000
  0.353067  0.039445  0.000000
  0.347582  0.051151  0.000000
  0.330992  0.057456  0.000000
  0.315841  0.059033  0.000000
  0.302079  0.066830  0.000000
  0.289654  0.070877  0.000000
  0.276549  0.077200  0.000000
  0.263753  0.083810  0.000000
  0.248151  0.090931  0.000000
  0.235005  0.099728  0.000000
  0.223306  0.110890  0.000000
  0.212555  0.119813  0.000000
  0.203031  0.128974  0.000000
  0.552048  0.018425  0.000000
  0.561259  0.015733  0.000000
  0.557349  0.010329  0.000000
  0.525356  0.021109  0.000000
  0.527538  0.029491  0.000000
  0.508130  0.013055  0.000000
  0.516945  0.017705  0.000000
  0.502515  0.018915  0.000000
  0.482700  0.041147  0.000000
  0.484001  0.031281  0.000000
  0.468806  0.026033  0.000000
  0.454775  0.030041  0.000000
  0.456351  0.040062  0.000000
  0.441906  0.036652  0.000000
  0.433638  0.038400  0.000000
  0.422773  0.043060  0.000000
  0.401224  0.046906  0.000000
  0.395500  0.041418  0.000000
  0.382503  0.049197  0.000000
  0.363815  0.053373  0.000000
  0.346170  0.054931  0.000000
  0.338979  0.062633  0.000000
  0.323285  0.064485  0.000000
  0.310396  0.071764  0.000000
  0.291533  0.076942  0.000000
  0.276982  0.079709  0.000000
  0.263565  0.092429  0.000000
  0.246021  0.098183  0.000000
  0.231985  0.113014  0.000000
  0.220847  0.119266  0.000000
  0.590545  0.012470  0.000000
  0.600698  0.011617  0.000000
  0.582480  0.010849  0.000000
  0.570202  0.011001  0.000000
  0.573015  0.017147  0.000000
  0.540980  0.010551  0.000000
  0.538377  0.016564  0.000000
  0.545255  0.019932  0.000000
  0.508920  0.034590  0.000000
  0.506902  0.051271  0.000000
  0.519838  0.038390  0.000000
  0.508421  0.024801  0.000000
  0.505242  0.037600  0.000000
  0.491235  0.050586  0.000000
  0.466988  0.038167  0.000000
  0.459793  0.041585  0.000000
  0.443084  0.044066  0.000000
  0.431839  0.048569  0.000000
  0.414941  0.046258  0.000000
  0.403723  0.055157  0.000000
  0.387429  0.057165  0.000000
  0.377324  0.057443  0.000000
  0.358942  0.060062  0.000000
  0.345860  0.067862  0.000000
  0.327038  0.069649  0.000000
  0.311086  0.072564  0.000000
  0.295389  0.091813  0.000000
  0.267875  0.099278  0.000000
  0.246836  0.107611  0.000000
  0.237458  0.110353  0.000000
  0.624611  0.013955  0.000000
  0.608500  0.012802  0.000000
  0.615215  0.013309  0.000000
  0.608189  0.024133  0.000000
  0.610477  0.042530  0.000000
  0.587726  0.019964  0.000000
  0.570676  0.039544  0.000000
  0.575993  0.025039  0.000000
  0.563320  0.029605  0.000000
  0.563412  0.032755  0.000000
  0.551165  0.031273  0.000000
  0.542496  0.034746  0.000000
  0.528134  0.030499  0.000000
  0.519210  0.045942  0.000000
  0.498024  0.034057  0.000000
  0.500453  0.049121  0.000000
  0.478412  0.040810  0.000000
  0.472954  0.050557  0.000000
  0.453755  0.053905  0.000000
  0.442720  0.056961  0.000000
  0.427055  0.056045  0.000000
  0.409319  0.051899  0.000000
  0.397493  0.067262  0.000000
  0.379222  0.065562  0.000000
  0.361999  0.067023  0.000000
  0.348020  0.077775  0.000000
  0.329809  0.080763  0.000000
  0.300207  0.078381  0.000000
  0.271993  0.090629  0.000000
  0.258369  0.101505  0.000000
  0.658871  0.010406  0.000000
  0.637151  0.012049  0.000000
  0.644641  0.010903  0.000000
  0.632783  0.016967  0.000000
  0.622425  0.021254  0.000000
  0.593311  0.035251  0.000000
  0.602301  0.024109  0.000000
  0.580899  0.033963  0.000000
  0.597605  0.034226  0.000000
  0.569930  0.048428  0.000000
  0.578181  0.040396  0.000000
  0.553365  0.037227  0.000000
  0.548117  0.050756  0.000000
  0.537793  0.044940  0.000000
  0.539191  0.042171  0.000000
  0.523141  0.051201  0.000000
  0.506025  0.062845  0.000000
  0.491802  0.050257  0.000000
  0.471824  0.057489  0.000000
  0.466952  0.055933  0.000000
  0.451557  0.057556  0.000000
  0.439436  0.057608  0.000000
  0.420998  0.060751  0.000000
  0.403176  0.064822  0.000000
  0.389333  0.063834  0.000000
  0.366065  0.073136  0.000000
  0.342318  0.072828  0.000000
  0.327430  0.079605  0.000000
  0.301863  0.085745  0.000000
  0.283475  0.092126  0.000000
 -0.010000  0.500000  0.000000
 -0.010000  0.490000  0.000000
 -0.010000  0.480000  0.000000
 -0.010000  0.470000  0.000000
 -0.010000  0.460000  0.000000
 -0.010000  0.450000  0.000000
 -0.010000  0.440000  0.000000
 -0.010000  0.430000  0.000000
 -0.010000  0.420000  0.000000
 -0.010000  0.410000  0.000000
 -0.010000  0.400000  0.000000
 -0.010000  0.390000  0.000000
 -0.010000  0.380000  0.000000
 -0.010000  0.370000  0.000000
 -0.010000  0.360000  0.000000
 -0.010000  0.350000  0.000000
 -0.010000  0.340000  0.000000
 -0.010000  0.330000  0.000000
 -0.010000  0.320000  0.000000
 -0.010000  0.310000  0.000000
 -0.010000  0.300000  0.000000
 -0.010000  0.290000  0.000000
 -0.010000  0.280000  0.000000
 -0.010000  0.270000  0.000000
 -0.010000  0.260000  0.000000
 -0.010000  0.250000  0.000000
 -0.010000  0.240000  0.000000
 -0.010000  0.230000  0.000000
 -0.010000  0.220000  0.000000
 -0.010000  0.210000  0.000000
 -0.010000  0.200000  0.000000
 -0.010000  0.190000  0.000000
 -0.010000  0.180000  0.000000
 -0.010000  0.170000  0.000000
 -0.010000  0.160000  0.000000
 -0.010000  0.150000  0.000000
 -0.010000  0.140000  0.000000
 -0.010000  0.130000  0.000000
 -0.010000  0.120000  0.000000
 -0.010000  0.110000  0.000000
 -0.010000  0.100000  0.000000
 -0.010000  0.090000  0.000000
 -0.010000  0.080000  0.000000
 -0.010000  0.070000  0.000000
 -0.010000  0.060000  0.000000
 -0.010000  0.050000  0.000000
 -0.010000  0.040000  0.000000
 -0.010000  0.030000  0.000000
 -0.010000  0.020000  0.000000
 -0.010000  0.010000  0.000000
 -0.100000 -0.010000  0.000000
 -0.090000 -0.010000  0.000000
 -0.080000 -0.010000  0.000000
 -0.070000 -0.010000  0.000000
 -0.060000 -0.010000  0.000000
 -0.050000 -0.010000  0.000000
 -0.040000 -0.010000  0.000000
 -0.030000 -0.010000  0.000000