<?xml version="1.0" encoding="UTF-8"?>
<VTKFile type="UnstructuredGrid" version="1.0" byte_order="LittleEndian">
<UnstructuredGrid>
  <Piece NumberOfPoints="1555" NumberOfCells="1555">
      <PointData>
        <DataArray type="Int32" Name="Type" format="ascii">
 1 1 1 1 1 1 1 1 1 1
 1 1 1 1 1 1 1 1 1 1
 1 1 1 1 1 1 1 1 1 1
 1 1 1 1 1 1 1 1 1 1
 1 1 1 1 1 1 1 1 1 1
 1 1 1 1 1 1 1 1 1 1
 1 3 3 3 3 3 3 3 3 3
 3 3 3 3 3 3 3 3 3 3
 3 3 3 3 3 3 3 3 3 3
 3 3 3 3 3 3 3 3 3 3
 3 3 3 3 3 3 3 3 3 3
 3 3 3 3 3 3 3 3 3 3
 3 3 3 3 3 3 3 3 3 3
 1 1 1 1 1 1 1 1 1 1
 1 1 1 1 1 1 1 1 1 1
 1 1 1 1 1 1 1 1 1 1
 1 1 1 1 1 1 1 1 1 1
 1 1 1 1 1 1 1 1 1 1
 1 1 1 1 1 1 1 1 1 1
 1 2 2 2 2 2 2 2 2 2
 2 2 2 2 2 2 2 2 2 2
 2 2 2 2 2 2 2 2 2 2
 2 2 2 2 2 2 2 2 2 2
 2 2 2 2 2 2 2 2 2 2
 2 2 2 2 2 2 2 2 2 2
 2 2 2 2 2 2 2 2 2 2
 2 2 2 2 2 2 2 2 2 2
 2 2 2 2 2 2 2 2 2 2
 2 2 2 2 2 2 2 2 2 2
 2 2 2 2 2 2 2 2 2 2
 2 2 2 2 2 2 2 2 2 2
 2 2 2 2 2 2 2 2 2 2
 2 2 2 2 2 2 2 2 2 2
 2 2 2 2 2 2 2 2 2 2
 2 2 2 2 2 2 2 2 2 2
 2 2 2 2 2 2 2 2 2 2
 2 2 2 2 2 2 2 2 2 2
 2 2 2 2 2 2 2 2 2 2
 2 2 2 2 2 2 2 2 2 2
 2 2 2 2 2 2 2 2 2 2
 2 2 2 2 2 2 2 2 2 2
 2 2 2 2 2 2 2 2 2 2
 2 2 2 2 2 2 2 2 2 2
 2 2 2 2 2 2 2 2 2 2
 2 2 2 2 2 2 2 2 2 2
 2 2 2 2 2 2 2 2 2 2
 2 2 2 2 2 2 2 2 2 2
 2 2 2 2 2 2 2 2 2 2
 2 2 2 2 2 2 2 2 2 2
 2 2 2 2 2 2 2 2 2 2
 2 2 2 2 2 2 2 2 2 2
 2 2 2 2 2 2 2 2 2 2
 2 2 2 2 2 2 2 2 2 2
 2 2 2 2 2 2 2 2 2 2
 2 2 2 2 2 2 2 2 2 2
 2 2 2 2 2 2 2 2 2 2
 2 2 2 2 2 2 2 2 2 2
 2 2 2 2 2 2 2 2 2 2
 2 2 2 2 2 2 2 2 2 2
 2 2 2 2 2 2 2 2 2 2
 2 2 2 2 2 2 2 2 2 2
 2 2 2 2 2 2 2 2 2 2
 2 2 2 2 2 2 2 2 2 2
 2 2 2 2 2 2 2 2 2 2
 2 2 2 2 2 2 2 2 2 2
 2 2 2 2 2 2 2 2 2 2
 2 2 2 2 2 2 2 2 2 2
 2 2 2 2 2 2 2 2 2 2
 2 2 2 2 2 2 2 2 2 2
 2 2 2 2 2 2 2 2 2 2
 2 2 2 2 2 2 2 2 2 2
 2 2 2 2 2 2 2 2 2 2
 2 2 2 2 2 2 2 2 2 2
 2 2 2 2 2 2 2 2 2 2
 2 2 2 2 2 2 2 2 2 2
 2 2 2 2 2 2 2 2 2 2
 2 2 2 2 2 2 2 2 2 2
 2 2 2 2 2 2 2 2 2 2
 2 2 2 2 2 2 2 2 2 2
 2 0 0 0 0 0 0 0 0 0
 0 0 0 0 0 0 0 0 0 0
 0 0 0 0 0 0 0 0 0 0
 0 0 0 0 0 0 0 0 0 0
 0 0 0 0 0 0 0 0 0 0
 0 0 0 0 0 0 0 0 0 0
 0 0 0 0 0 0 0 0 0 0
 0 0 0 0 0 0 0 0 0 0
 0 0 0 0 0 0 0 0 0 0
 0 0 0 0 0 0 0 0 0 0
 0 0 0 0 0 0 0 0 0 0
 0 0 0 0 0 0 0 0 0 0
 0 0 0 0 0 0 0 0 0 0
 0 0 0 0 0 0 0 0 0 0
 0 0 0 0 0 0 0 0 0 0
 0 0 0 0 0 0 0 0 0 0
 0 0 0 0 0 0 0 0 0 0
 0 0 0 0 0 0 0 0 0 0
 0 0 0 0 0 0 0 0 0 0
 0 0 0 0 0 0 0 0 0 0
 0 0 0 0 0 0 0 0 0 0
 0 0 0 0 0 0 0 0 0 0
 0 0 0 0 0 0 0 0 0 0
 0 0 0 0 0 0 0 0 0 0
 0 0 0 0 0 0 0 0 0 0
 0 0 0 0 0 0 0 0 0 0
 0 0 0 0 0 0 0 0 0 0
 0 0 0 0 0 0 0 0 0 0
 0 0 0 0 0 0 0 0 0 0
 0 0 0 0 0 0 0 0 0 0
 0 0 0 0 0 0 0 0 0 0
 0 0 0 0 0 0 0 0 0 0
 0 0 0 0 0 0 0 0 0 0
 0 0 0 0 0 0 0 0 0 0
 0 0 0 0 0 0 0 0 0 0
 0 0 0 0 0 0 0 0 0 0
 0 0 0 0 0 0 0 0 0 0
 0 0 0 0 0 0 0 0 0 0
 0 0 0 0 0 0 0 0 0 0
 0 0 0 0 0 0 0 0 0 0
 0 0 0 0 0 0 0 0 0 0
 0 0 0 0 0 0 0 0 0 0
 0 0 0 0 0 0 0 0 0 0
 0 0 0 0 0 0 0 0 0 0
 0 0 0 0 0 0 0 0 0 0
 0 0 0 0 0 0 0 0 0 0
 0 0 0 0 0 0 0 0 0 0
 0 0 0 0 0 0 0 0 0 0
 0 0 0 0 0 0 0 0 0 0
 0 0 0 0 0 0 0 0 0 0
 0 0 0 0 0 0 0 0 0 0
 0 0 0 0 0 0 0 0 0 0
 0 0 0 0 0 0 0 0 0 0
 0 0 0 0 0 0 0 0 0 0
 0 0 0 0 0 0 0 0 0 0
 0 0 0 0 0 0 0 0 0 0
 0 0 0 0 0 0 0 0 0 0
 0 0 0 0 0 0 0 0 0 0
 0 0 0 0 0 0 0 0 0 0
 0 0 0 0 0 0 0 0 0 0
 0 0 0 0 0 0 0 0 0 0
 0 0 0 0 0 0 0 0 0 0
 0 0 0 0 0 0 0 0 0 0
 0 0 0 0 0 0 0 0 0 0
 0 0 0 0 0 0 0 0 0 0
 0 0 0 0 0 0 0 0 0 0
 0 0 0 0 0 0 0 0 0 0
 0 0 0 0 0 0 0 0 0 0
 0 0 0 0 0 0 0 0 0 0
 0 0 0 0 0 0 0 0 0 0
 0 0 0 0 0 0 0 0 0 0
 0 0 0 0 0 0 0 0 0 0
 0 0 0 0 0 0 0 0 0 0
 0 0 0 0 0 0 0 0 0 0
 0 0 0 0 0 0 0 0 0 0
 0 0 0 0 0 0 0 0 0 0
 0 0 0 0 0
        </DataArray>
      </PointData>
      <Points>
        <DataArray type="Float32" NumberOfComponents="3" format="ascii">
  0.000000  0.500000  0.000000
  0.000000  0.490000  0.000000
  0.000000  0.480000  0.000000
  0.000000  0.470000  0.000000
  0.000000  0.460000  0.000000
  0.000000  0.450000  0.000000
  0.000000  0.440000  0.000000
  0.000000  0.430000  0.000000
  0.000000  0.420000  0.000000
  0.000000  0.410000  0.000000
  0.000000  0.400000  0.000000
  0.000000  0.390000  0.000000
  0.000000  0.380000  0.000000
  0.000000  0.370000  0.000000
  0.000000  0.360000  0.000000
  0.000000  0.350000  0.000000
  0.000000  0.340000  0.000000
  0.000000  0.330000  0.000000
  0.000000  0.320000  0.000000
  0.000000  0.310000  0.000000
  0.000000  0.300000  0.000000
  0.000000  0.290000  0.000000
  0.000000  0.280000  0.000000
  0.000000  0.270000  0.000000
  0.000000  0.260000  0.000000
  0.000000  0.250000  0.000000
  0.000000  0.240000  0.000000
  0.000000  0.230000  0.000000
  0.000000  0.220000  0.000000
  0.000000  0.210000  0.000000
  0.000000  0.200000  0.000000
  0.000000  0.190000  0.000000
  0.000000  0.180000  0.000000
  0.000000  0.170000  0.000000
  0.000000  0.160000  0.000000
  0.000000  0.150000  0.000000
  0.000000  0.140000  0.000000
  0.000000  0.130000  0.000000
  0.000000  0.120000  0.000000
  0.000000  0.110000  0.000000
  0.000000  0.100000  0.000000
  0.000000  0.090000  0.000000
  0.000000  0.080000  0.000000
  0.000000  0.070000  0.000000
  0.000000  0.060000  0.000000
  0.000000  0.050000  0.000000
  0.000000  0.040000  0.000000
  0.000000  0.030000  0.000000
  0.000000  0.020000  0.000000
  0.000000  0.010000  0.000000
 -0.100000  0.000000  0.000000
 -0.090000  0.000000  0.000000
 -0.080000  0.000000  0.000000
 -0.070000  0.000000  0.000000
 -0.060000  0.000000  0.000000
 -0.050000  0.000000  0.000000
 -0.040000  0.000000  0.000000
 -0.030000  0.000000  0.000000
 -0.020000  0.000000  0.000000
 -0.010000  0.000000  0.000000
 -0.000000  0.000000  0.000000
  0.010000  0.000000  0.000000
  0.020000  0.000000  0.000000
  0.030000  0.000000  0.000000
  0.040000  0.000000  0.000000
  0.050000  0.000000  0.000000
  0.060000  0.000000  0.000000
  0.070000  0.000000  0.000000
  0.080000  0.000000  0.000000
  0.090000  0.000000  0.000000
  0.100000  0.000000  0.000000
  0.110000  0.000000  0.000000
  0.120000  0.000000  0.000000
  0.130000  0.000000  0.000000
  0.140000  0.000000  0.000000
  0.150000  0.000000  0.000000
  0.160000  0.000000  0.000000
  0.170000  0.000000  0.000000
  0.180000  0.000000  0.000000
  0.190000  0.000000  0.000000
  0.200000  0.000000  0.000000
  0.210000  0.000000  0.000000
  0.220000  0.000000  0.000000
  0.230000  0.000000  0.000000
  0.240000  0.000000  0.000000
  0.250000  0.000000  0.000000
  0.260000  0.000000  0.000000
  0.270000  0.000000  0.000000
  0.280000  0.000000  0.000000
  0.290000  0.000000  0.000000
  0.300000  0.000000  0.000000
  0.310000  0.000000  0.000000
  0.320000  0.000000  0.000000
  0.330000  0.000000  0.000000
  0.340000  0.000000  0.000000
  0.350000  0.000000  0.000000
  0.360000  0.000000  0.000000
  0.370000  0.000000  0.000000
  0.380000  0.000000  0.000000
  0.390000  0.000000  0.000000
  0.400000  0.000000  0.000000
  0.410000  0.000000  0.000000
  0.420000  0.000000  0.000000
  0.430000  0.000000  0.000000
  0.440000  0.000000  0.000000
  0.450000  0.000000  0.000000
  0.460000  0.000000  0.000000
  0.470000  0.000000  0.000000
  0.480000  0.000000  0.000000
  0.490000  0.000000  0.000000
  0.500000  0.000000  0.000000
  0.510000  0.000000  0.000000
  0.520000  0.000000  0.000000
  0.530000  0.000000  0.000000
  0.540000  0.000000  0.000000
  0.550000  0.000000  0.000000
  0.560000  0.000000  0.000000
  0.570000  0.000000  0.000000
  0.580000  0.000000  0.000000
  0.590000  0.000000  0.000000
  0.600000  0.000000  0.000000
  0.610000  0.000000  0.000000
  0.620000  0.000000  0.000000
  0.630000  0.000000  0.000000
  0.640000  0.000000  0.000000
  0.650000  0.000000  0.000000
  0.660000  0.000000  0.000000
  0.670000  0.000000  0.000000
  0.680000  0.000000  0.000000
  0.690000  0.000000  0.000000
  0.700000  0.000000  0.000000
  0.710000  0.000000  0.000000
  0.720000  0.000000  0.000000
  0.730000  0.000000  0.000000
  0.740000  0.000000  0.000000
  0.750000  0.000000  0.000000
  0.760000  0.000000  0.000000
  0.770000  0.000000  0.000000
  0.780000  0.000000  0.000000
  0.790000  0.000000  0.000000
  0.800000  0.000000  0.000000
  0.700000  0.010000  0.000000
  0.700000  0.020000  0.000000
  0.700000  0.030000  0.000000
  0.700000  0.040000  0.000000
  0.700000  0.050000  0.000000
  0.700000  0.060000  0.000000
  0.700000  0.070000  0.000000
  0.700000  0.080000  0.000000
  0.700000  0.090000  0.000000
  0.700000  0.100000  0.000000
  0.700000  0.110000  0.000000
  0.700000  0.120000  0.000000
  0.700000  0.130000  0.000000
  0.700000  0.140000  0.000000
  0.700000  0.150000  0.000000
  0.700000  0.160000  0.000000
  0.700000  0.170000  0.000000
  0.700000  0.180000  0.000000
  0.700000  0.190000  0.000000
  0.700000  0.200000  0.000000
  0.700000  0.210000  0.000000
  0.700000  0.220000  0.000000
  0.700000  0.230000  0.000000
  0.700000  0.240000  0.000000
  0.700000  0.250000  0.000000
  0.700000  0.260000  0.000000
  0.700000  0.270000  0.000000
  0.700000  0.280000  0.000000
  0.700000  0.290000  0.000000
  0.700000  0.300000  0.000000
  0.700000  0.310000  0.000000
  0.700000  0.320000  0.000000
  0.700000  0.330000  0.000000
  0.700000  0.340000  0.000000
  0.700000  0.350000  0.000000
  0.700000  0.360000  0.000000
  0.700000  0.370000  0.000000
  0.700000  0.380000  0.000000
  0.700000  0.390000  0.000000
  0.700000  0.400000  0.000000
  0.700000  0.410000  0.000000
  0.700000  0.420000  0.000000
  0.700000  0.430000  0.000000
  0.700000  0.440000  0.000000
  0.700000  0.450000  0.000000
  0.700000  0.460000  0.000000
  0.700000  0.470000  0.000000
  0.700000  0.480000  0.000000
  0.700000  0.490000  0.000000
  0.700000  0.500000  0.000000
  0.012702  0.009055  0.000000
  0.023544  0.015779  0.000000
  0.031949  0.016964  0.000000
  0.009391  0.015297  0.000000
  0.017618  0.026973  0.000000
  0.011584  0.025691  0.000000
  0.028949  0.026558  0.000000
  0.033140  0.033677  0.000000
  0.043395  0.033888  0.000000
  0.022814  0.035572  0.000000
  0.033354  0.042815  0.000000
  0.008341  0.035652  0.000000
  0.012308  0.045713  0.000000
  0.007823  0.055598  0.000000
  0.009550  0.070103  0.000000
  0.018847  0.070633  0.000000
  0.025365  0.077298  0.000000
  0.010858  0.077883  0.000000
  0.019760  0.092000  0.000000
  0.009257  0.088571  0.000000
  0.014254  0.099019  0.000000
  0.008485  0.103617  0.000000
  0.010515  0.115762  0.000000
  0.012682  0.121001  0.000000
  0.009920  0.130747  0.000000
  0.016397  0.137380  0.000000
  0.010982  0.140458  0.000000
  0.020327  0.149539  0.000000
  0.008368  0.153215  0.000000
  0.023812  0.150707  0.000000
  0.042806  0.008461  0.000000
  0.026540  0.008658  0.000000
  0.050331  0.010872  0.000000
  0.041294  0.019764  0.000000
  0.058657  0.015262  0.000000
  0.056980  0.029189  0.000000
  0.074078  0.024278  0.000000
  0.045716  0.022880  0.000000
  0.050586  0.048436  0.000000
  0.045697  0.042005  0.000000
  0.037393  0.053603  0.000000
  0.018808  0.044320  0.000000
  0.042466  0.058880  0.000000
  0.029680  0.049662  0.000000
  0.048865  0.064675  0.000000
  0.017608  0.059424  0.000000
  0.020972  0.056055  0.000000
  0.030791  0.069427  0.000000
  0.039914  0.079975  0.000000
  0.021540  0.085154  0.000000
  0.035485  0.096443  0.000000
  0.030331  0.098130  0.000000
  0.021640  0.106394  0.000000
  0.030932  0.109030  0.000000
  0.022158  0.115610  0.000000
  0.029768  0.122147  0.000000
  0.024753  0.126579  0.000000
  0.029971  0.133771  0.000000
  0.028846  0.139083  0.000000
  0.031955  0.152421  0.000000
  0.084426  0.008902  0.000000
  0.066332  0.008241  0.000000
  0.071994  0.013624  0.000000
  0.061585  0.021202  0.000000
  0.081329  0.023748  0.000000
  0.094650  0.023950  0.000000
  0.111407  0.025716  0.000000
  0.084193  0.035400  0.000000
  0.080586  0.045909  0.000000
  0.053723  0.033485  0.000000
  0.066513  0.045669  0.000000
  0.069887  0.037386  0.000000
  0.056079  0.058474  0.000000
  0.056871  0.073810  0.000000
  0.070330  0.071132  0.000000
  0.032597  0.064447  0.000000
  0.056873  0.078803  0.000000
  0.043209  0.072065  0.000000
  0.045630  0.084973  0.000000
  0.033181  0.085682  0.000000
  0.049118  0.092658  0.000000
  0.047381  0.097354  0.000000
  0.045416  0.107041  0.000000
  0.038800  0.110666  0.000000
  0.047038  0.117693  0.000000
  0.043396  0.123690  0.000000
  0.043231  0.129964  0.000000
  0.044100  0.136510  0.000000
  0.042656  0.144631  0.000000
  0.039700  0.149254  0.000000
  0.110743  0.009426  0.000000
  0.095886  0.009601  0.000000
  0.110905  0.020126  0.000000
  0.084275  0.015696  0.000000
  0.113535  0.038021  0.000000
  0.102915  0.013329  0.000000
  0.103243  0.035180  0.000000
  0.097014  0.025435  0.000000
  0.091205  0.048163  0.000000
  0.069170  0.032696  0.000000
  0.101795  0.049124  0.000000
  0.068149  0.053209  0.000000
  0.092506  0.056675  0.000000
  0.057516  0.047034  0.000000
  0.062020  0.064313  0.000000
  0.080182  0.052730  0.000000
  0.071954  0.062735  0.000000
  0.078219  0.076432  0.000000
  0.067680  0.082197  0.000000
  0.062265  0.087770  0.000000
  0.071384  0.095518  0.000000
  0.061820  0.096695  0.000000
  0.056793  0.108863  0.000000
  0.063680  0.104926  0.000000
  0.060178  0.115461  0.000000
  0.059083  0.122817  0.000000
  0.060793  0.129081  0.000000
  0.058294  0.136097  0.000000
  0.055101  0.145094  0.000000
  0.057287  0.149590  0.000000
  0.135291  0.008837  0.000000
  0.121944  0.009341  0.000000
  0.135554  0.017565  0.000000
  0.125551  0.015581  0.000000
  0.146908  0.018161  0.000000
  0.124396  0.025062  0.000000
  0.120287  0.031252  0.000000
  0.134017  0.032318  0.000000
  0.087621  0.036053  0.000000
  0.126574  0.044412  0.000000
  0.100623  0.039811  0.000000
  0.120204  0.043823  0.000000
  0.111477  0.050947  0.000000
  0.101169  0.060393  0.000000
  0.108828  0.068064  0.000000
  0.082190  0.062333  0.000000
  0.095477  0.068503  0.000000
  0.086241  0.069224  0.000000
  0.092581  0.087550  0.000000
  0.084157  0.081542  0.000000
  0.077558  0.088376  0.000000
  0.085515  0.095346  0.000000
  0.080603  0.103082  0.000000
  0.074780  0.107560  0.000000
  0.078817  0.113313  0.000000
  0.075741  0.121939  0.000000
  0.073306  0.125184  0.000000
  0.072049  0.135081  0.000000
  0.070434  0.141596  0.000000
  0.065983  0.147322  0.000000
  0.157121  0.009849  0.000000
  0.147912  0.010036  0.000000
  0.166778  0.022635  0.000000
  0.154460  0.022046  0.000000
  0.188563  0.016439  0.000000
  0.161009  0.028841  0.000000
  0.180636  0.017186  0.000000
  0.136920  0.026963  0.000000
  0.148839  0.030432  0.000000
  0.160817  0.039557  0.000000
  0.147077  0.045863  0.000000
  0.149715  0.038527  0.000000
  0.138220  0.039972  0.000000
  0.123526  0.058193  0.000000
  0.112335  0.057271  0.000000
  0.119092  0.068629  0.000000
  0.105676  0.074936  0.000000
  0.122240  0.073948  0.000000
  0.095875  0.077726  0.000000
  0.110693  0.083162  0.000000
  0.101192  0.089459  0.000000
  0.103577  0.095913  0.000000
  0.093461  0.099739  0.000000
  0.096685  0.107258  0.000000
  0.095210  0.113781  0.000000
  0.090118  0.118355  0.000000
  0.088250  0.125543  0.000000
  0.087736  0.132428  0.000000
  0.083070  0.141111  0.000000
  0.085005  0.144936  0.000000
  0.202578  0.010107  0.000000
  0.171430  0.009073  0.000000
  0.185582  0.008849  0.000000
  0.166776  0.013595  0.000000
  0.221629  0.027461  0.000000
  0.198536  0.015078  0.000000
  0.200389  0.026710  0.000000
  0.182560  0.026398  0.000000
  0.171756  0.030047  0.000000
  0.179592  0.037933  0.000000
  0.170603  0.040979  0.000000
  0.176233  0.051064  0.000000
  0.157085  0.051453  0.000000
  0.134926  0.049046  0.000000
  0.142445  0.056147  0.000000
  0.128224  0.057288  0.000000
  0.136419  0.066446  0.000000
  0.135240  0.071736  0.000000
  0.129599  0.079170  0.000000
  0.116889  0.084440  0.000000
  0.127398  0.090024  0.000000
  0.117161  0.094384  0.000000
  0.114200  0.100757  0.000000
  0.115913  0.106973  0.000000
  0.107924  0.111161  0.000000
  0.109002  0.118617  0.000000
  0.105495  0.124622  0.000000
  0.101977  0.130853  0.000000
  0.099010  0.138057  0.000000
  0.095214  0.143179  0.000000
  0.221921  0.011352  0.000000
  0.210332  0.014581  0.000000
  0.253740  0.020281  0.000000
  0.220790  0.014729  0.000000
  0.258723  0.027744  0.000000
  0.232850  0.010838  0.000000
  0.236689  0.025040  0.000000
  0.209703  0.023426  0.000000
  0.224609  0.029400  0.000000
  0.212569  0.034089  0.000000
  0.199152  0.030903  0.000000
  0.185737  0.032125  0.000000
  0.187649  0.044817  0.000000
  0.162387  0.048445  0.000000
  0.168009  0.062485  0.000000
  0.155867  0.062118  0.000000
  0.146706  0.060700  0.000000
  0.163375  0.066849  0.000000
  0.147459  0.072862  0.000000
  0.152581  0.075137  0.000000
  0.144331  0.084714  0.000000
  0.136481  0.086533  0.000000
  0.138097  0.097064  0.000000
  0.130777  0.098409  0.000000
  0.131453  0.107571  0.000000
  0.126619  0.113329  0.000000
  0.122183  0.118681  0.000000
  0.118598  0.127009  0.000000
  0.114319  0.137291  0.000000
  0.111521  0.139909  0.000000
  0.260645  0.011341  0.000000
  0.242319  0.011719  0.000000
  0.266619  0.012403  0.000000
  0.249903  0.011921  0.000000
  0.283755  0.016864  0.000000
  0.273428  0.017031  0.000000
  0.268394  0.024335  0.000000
  0.249998  0.028697  0.000000
  0.237085  0.020420  0.000000
  0.239815  0.033806  0.000000
  0.217862  0.040077  0.000000
  0.214327  0.048543  0.000000
  0.211738  0.054033  0.000000
  0.197336  0.040570  0.000000
  0.198979  0.052956  0.000000
  0.174716  0.055126  0.000000
  0.189527  0.051270  0.000000
  0.184377  0.061927  0.000000
  0.177747  0.070205  0.000000
  0.169690  0.074925  0.000000
  0.168999  0.082431  0.000000
  0.154882  0.083290  0.000000
  0.155125  0.090490  0.000000
  0.150719  0.095656  0.000000
  0.149873  0.103200  0.000000
  0.142925  0.110222  0.000000
  0.138724  0.115949  0.000000
  0.132894  0.125601  0.000000
  0.128233  0.132295  0.000000
  0.126777  0.137143  0.000000
  0.314641  0.010938  0.000000
  0.285989  0.010233  0.000000
  0.328031  0.012893  0.000000
  0.293945  0.013153  0.000000
  0.327573  0.030882  0.000000
  0.302755  0.011149  0.000000
  0.323850  0.026536  0.000000
  0.281713  0.025542  0.000000
  0.267088  0.036542  0.000000
  0.254948  0.037944  0.000000
  0.247479  0.041823  0.000000
  0.243588  0.046880  0.000000
  0.204318  0.042738  0.000000
  0.233354  0.039556  0.000000
  0.227343  0.043836  0.000000
  0.225429  0.055677  0.000000
  0.209281  0.064146  0.000000
  0.198771  0.060805  0.000000
  0.200622  0.070303  0.000000
  0.189380  0.066707  0.000000
  0.191991  0.076600  0.000000
  0.182752  0.078861  0.000000
  0.177938  0.085169  0.000000
  0.170835  0.091346  0.000000
  0.168294  0.097712  0.000000
  0.160423  0.105827  0.000000
  0.154707  0.113544  0.000000
  0.150588  0.119248  0.000000
  0.145720  0.128284  0.000000
  0.140841  0.131844  0.000000
  0.357087  0.011462  0.000000
  0.318356  0.014885  0.000000
  0.373171  0.011431  0.000000
  0.345574  0.010798  0.000000
  0.368443  0.012468  0.000000
  0.334884  0.011356  0.000000
  0.343869  0.018933  0.000000
  0.332155  0.021651  0.000000
  0.309703  0.024459  0.000000
  0.304052  0.036298  0.000000
  0.304668  0.017832  0.000000
  0.276277  0.031355  0.000000
  0.270408  0.042016  0.000000
  0.275818  0.053874  0.000000
  0.262476  0.047190  0.000000
  0.246180  0.058959  0.000000
  0.236378  0.052048  0.000000
  0.230888  0.060668  0.000000
  0.229468  0.068539  0.000000
  0.217434  0.063597  0.000000
  0.211119  0.076220  0.000000
  0.207692  0.079596  0.000000
  0.195835  0.084640  0.000000
  0.195271  0.089207  0.000000
  0.186091  0.096207  0.000000
  0.176866  0.102152  0.000000
  0.169955  0.107257  0.000000
  0.166914  0.117210  0.000000
  0.162473  0.129257  0.000000
  0.155020  0.129181  0.000000
  0.420766  0.013475  0.000000
  0.395427  0.011279  0.000000
  0.430100  0.010986  0.000000
  0.405861  0.012654  0.000000
  0.416610  0.012406  0.000000
  0.385113  0.011879  0.000000
  0.383546  0.017410  0.000000
  0.364742  0.025418  0.000000
  0.356503  0.016137  0.000000
  0.347598  0.025951  0.000000
  0.340816  0.036524  0.000000
  0.312200  0.031993  0.000000
  0.296907  0.029220  0.000000
  0.301017  0.046377  0.000000
  0.284676  0.040297  0.000000
  0.282495  0.047406  0.000000
  0.272580  0.060579  0.000000
  0.260126  0.052418  0.000000
  0.264205  0.063881  0.000000
  0.254037  0.058602  0.000000
  0.242773  0.065698  0.000000
  0.242524  0.073389  0.000000
  0.221848  0.073379  0.000000
  0.221801  0.084912  0.000000
  0.210179  0.090492  0.000000
  0.197610  0.098198  0.000000
  0.191886  0.105573  0.000000
  0.185869  0.111302  0.000000
  0.176589  0.118530  0.000000
  0.171174  0.122462  0.000000
  0.515210  0.011573  0.000000
  0.468469  0.012692  0.000000
  0.477756  0.011344  0.000000
  0.450849  0.010168  0.000000
  0.463584  0.012202  0.000000
  0.437678  0.012657  0.000000
  0.419590  0.027131  0.000000
  0.418410  0.026058  0.000000
  0.401926  0.015494  0.000000
  0.386621  0.024759  0.000000
  0.370706  0.025335  0.000000
  0.359402  0.031341  0.000000
  0.346556  0.032565  0.000000
  0.350356  0.045843  0.000000
  0.318904  0.038549  0.000000
  0.318257  0.050159  0.000000
  0.310789  0.044873  0.000000
  0.292610  0.028267  0.000000
  0.290179  0.039811  0.000000
  0.300378  0.053533  0.000000
  0.285375  0.058404  0.000000
  0.269317  0.070488  0.000000
  0.254772  0.069869  0.000000
  0.234492  0.080187  0.000000
  0.229037  0.081718  0.000000
  0.217110  0.091669  0.000000
  0.211513  0.099355  0.000000
  0.202553  0.106063  0.000000
  0.195388  0.118362  0.000000
  0.186210  0.118419  0.000000
  0.557800  0.011665  0.000000
  0.520892  0.013317  0.000000
  0.536502  0.012383  0.000000
  0.503709  0.014040  0.000000
  0.522297  0.026442  0.000000
  0.486364  0.013741  0.000000
  0.463947  0.025942  0.000000
  0.467659  0.035141  0.000000
  0.433176  0.021974  0.000000
  0.448199  0.027172  0.000000
  0.431520  0.035558  0.000000
  0.404350  0.026475  0.000000
  0.389533  0.029673  0.000000
  0.397748  0.040626  0.000000
  0.376080  0.035355  0.000000
  0.358604  0.040349  0.000000
  0.364497  0.053249  0.000000
  0.333529  0.040501  0.000000
  0.337050  0.055060  0.000000
  0.329540  0.044001  0.000000
  0.312766  0.058327  0.000000
  0.295895  0.057197  0.000000
  0.288059  0.064658  0.000000
  0.266135  0.078514  0.000000
  0.254907  0.078350  0.000000
  0.243932  0.086394  0.000000
  0.236443  0.097297  0.000000
  0.223605  0.103161  0.000000
  0.215278  0.110588  0.000000
  0.205545  0.114123  0.000000
  0.609740  0.009877  0.000000
  0.580419  0.014853  0.000000
  0.594403  0.011275  0.000000
  0.573342  0.010486  0.000000
  0.546823  0.027001  0.000000
  0.544827  0.010984  0.000000
  0.498983  0.010316  0.000000
  0.510445  0.038395  0.000000
  0.470962  0.025825  0.000000
  0.486379  0.016809  0.000000
  0.478691  0.027907  0.000000
  0.446089  0.014599  0.000000
  0.456152  0.020039  0.000000
  0.450301  0.030651  0.000000
  0.402678  0.029530  0.000000
  0.415954  0.038523  0.000000
  0.408106  0.039766  0.000000
  0.381489  0.035358  0.000000
  0.379218  0.049129  0.000000
  0.367067  0.039268  0.000000
  0.348031  0.047821  0.000000
  0.324862  0.055299  0.000000
  0.314923  0.064439  0.000000
  0.302175  0.066329  0.000000
  0.281914  0.070952  0.000000
  0.274088  0.081585  0.000000
  0.251501  0.082628  0.000000
  0.242653  0.092851  0.000000
  0.235237  0.109569  0.000000
  0.221185  0.107086  0.000000
  0.635014  0.011637  0.000000
  0.624717  0.009879  0.000000
  0.600095  0.018095  0.000000
  0.608915  0.033632  0.000000
  0.589577  0.012235  0.000000
  0.559524  0.013274  0.000000
  0.582334  0.026951  0.000000
  0.561976  0.026252  0.000000
  0.526944  0.014585  0.000000
  0.543454  0.017888  0.000000
  0.534751  0.025322  0.000000
  0.513443  0.025926  0.000000
  0.495682  0.026352  0.000000
  0.504413  0.020690  0.000000
  0.483588  0.039888  0.000000
  0.460527  0.042964  0.000000
  0.446235  0.041723  0.000000
  0.435357  0.027408  0.000000
  0.428867  0.039379  0.000000
  0.407522  0.052626  0.000000
  0.391787  0.042566  0.000000
  0.372321  0.050922  0.000000
  0.350358  0.058666  0.000000
  0.341806  0.063657  0.000000
  0.325294  0.064514  0.000000
  0.303613  0.073547  0.000000
  0.284977  0.077294  0.000000
  0.270327  0.089834  0.000000
  0.257520  0.099029  0.000000
  0.238662  0.101901  0.000000
  0.661077  0.022194  0.000000
  0.668939  0.025368  0.000000
  0.660213  0.010912  0.000000
  0.634653  0.020938  0.000000
  0.639392  0.035961  0.000000
  0.616414  0.016966  0.000000
  0.624600  0.018562  0.000000
  0.608514  0.021211  0.000000
  0.594465  0.047761  0.000000
  0.592677  0.029808  0.000000
  0.573259  0.016932  0.000000
  0.558741  0.024167  0.000000
  0.554876  0.039071  0.000000
  0.544058  0.034270  0.000000
  0.528670  0.030867  0.000000
  0.524598  0.039353  0.000000
  0.490698  0.040975  0.000000
  0.488329  0.029097  0.000000
  0.465978  0.042513  0.000000
  0.445070  0.039973  0.000000
  0.420002  0.044937  0.000000
  0.414765  0.053962  0.000000
  0.394258  0.050287  0.000000
  0.385070  0.064670  0.000000
  0.355212  0.069462  0.000000
  0.337508  0.061331  0.000000
  0.323440  0.072158  0.000000
  0.300043  0.076716  0.000000
  0.281406  0.091558  0.000000
  0.264686  0.091642  0.000000
  0.685781  0.012476  0.000000
  0.684973  0.043002  0.000000
  0.680393  0.029192  0.000000
  0.670760  0.012010  0.000000
  0.673771  0.014165  0.000000
  0.651327  0.011504  0.000000
  0.643928  0.012589  0.000000
  0.649320  0.022477  0.000000
  0.611389  0.029867  0.000000
  0.609336  0.054838  0.000000
  0.625241  0.036981  0.000000
  0.628834  0.028184  0.000000
  0.621145  0.035854  0.000000
  0.604158  0.050797  0.000000
  0.573483  0.031914  0.000000
  0.567054  0.035215  0.000000
  0.546965  0.042137  0.000000
  0.529948  0.047027  0.000000
  0.508689  0.037209  0.000000
  0.496323  0.049911  0.000000
  0.481723  0.045366  0.000000
  0.468785  0.057348  0.000000
  0.436306  0.056206  0.000000
  0.430596  0.050138  0.000000
  0.400817  0.057597  0.000000
  0.383141  0.052710  0.000000
  0.358930  0.074755  0.000000
  0.330833  0.082718  0.000000
  0.296489  0.087996  0.000000
  0.287816  0.088077  0.000000
  0.691834  0.043054  0.000000
  0.689925  0.024512  0.000000
  0.685628  0.013524  0.000000
  0.678830  0.078651  0.000000
  0.677588  0.102509  0.000000
  0.692079  0.061358  0.000000
  0.676879  0.067788  0.000000
  0.673963  0.040757  0.000000
  0.670448  0.029627  0.000000
  0.665081  0.044613  0.000000
  0.653553  0.037926  0.000000
  0.652169  0.026542  0.000000
  0.640360  0.031692  0.000000
  0.634666  0.047696  0.000000
  0.594431  0.026693  0.000000
  0.613223  0.044887  0.000000
  0.582019  0.034567  0.000000
  0.585666  0.046538  0.000000
  0.556228  0.055449  0.000000
  0.546855  0.052054  0.000000
  0.518070  0.057311  0.000000
  0.500435  0.034090  0.000000
  0.498962  0.057788  0.000000
  0.456249  0.052361  0.000000
  0.440678  0.058185  0.000000
  0.430409  0.059777  0.000000
  0.399852  0.067730  0.000000
  0.363111  0.059345  0.000000
  0.328091  0.079671  0.000000
  0.313207  0.079258  0.000000
  0.652068  0.136275  0.000000
  0.684838  0.032923  0.000000
  0.656461  0.108536  0.000000
  0.688129  0.185092  0.000000
  0.666421  0.105722  0.000000
  0.692422  0.080842  0.000000
  0.682858  0.058692  0.000000
  0.675623  0.050361  0.000000
  0.684014  0.090930  0.000000
  0.676976  0.062706  0.000000
  0.678139  0.075597  0.000000
  0.663935  0.046474  0.000000
  0.654760  0.054704  0.000000
  0.647030  0.053167  0.000000
  0.648826  0.042685  0.000000
  0.639496  0.052681  0.000000
  0.618705  0.048893  0.000000
  0.595433  0.041155  0.000000
  0.568919  0.045714  0.000000
  0.575064  0.047428  0.000000
  0.560141  0.046069  0.000000
  0.536554  0.040369  0.000000
  0.517732  0.046087  0.000000
  0.496281  0.054277  0.000000
  0.477396  0.052535  0.000000
  0.456697  0.054125  0.000000
  0.414436  0.060813  0.000000
  0.391198  0.064826  0.000000
  0.365310  0.070332  0.000000
  0.348144  0.076245  0.000000
 -0.010000  0.500000  0.000000
 -0.010000  0.490000  0.000000
 -0.010000  0.480000  0.000000
 -0.010000  0.470000  0.000000
 -0.010000  0.460000  0.000000
 -0.010000  0.450000  0.000000
 -0.010000  0.440000  0.000000
 -0.010000  0.430000  0.000000
 -0.010000  0.420000  0.000000
 -0.010000  0.410000  0.000000
 -0.010000  0.400000  0.000000
 -0.010000  0.390000  0.000000
 -0.010000  0.380000  0.000000
 -0.010000  0.370000  0.000000
 -0.010000  0.360000  0.000000
 -0.010000  0.350000  0.000000
 -0.010000  0.340000  0.000000
 -0.010000  0.330000  0.000000
 -0.010000  0.320000  0.000000
 -0.010000  0.310000  0.000000
 -0.010000  0.300000  0.000000
 -0.010000  0.290000  0.000000
 -0.010000  0.280000  0.000000
 -0.010000  0.270000  0.000000
 -0.010000  0.260000  0.000000
 -0.010000  0.250000  0.000000
 -0.010000  0.240000  0.000000
 -0.010000  0.230000  0.000000
 -0.010000  0.220000  0.000000
 -0.010000  0.210000  0.000000
 -0.010000  0.200000  0.000000
 -0.010000  0.190000  0.000000
 -0.010000  0.180000  0.000000
 -0.010000  0.170000  0.000000
 -0.010000  0.160000  0.000000
 -0.010000  0.150000  0.000000
 -0.010000  0.140000  0.000000
 -0.010000  0.130000  0.000000
 -0.010000  0.120000  0.000000
 -0.010000  0.110000  0.000000
 -0.010000  0.100000  0.000000
 -0.010000  0.090000  0.000000
 -0.010000  0.080000  0.000000
 -0.010000  0.070000  0.000000
 -0.010000  0.060000  0.000000
 -0.010000  0.050000  0.000000
 -0.010000  0.040000  0.000000
 -0.010000  0.030000  0.000000
 -0.010000  0.020000  0.000000
 -0.010000  0.010000  0.000000
 -0.100000 -0.010000  0.000000
 -0.090000 -0.010000  0.000000
 -0.080000 -0.010000  0.000000
 -0.070000 -0.010000  0.000000
 -0.060000 -0.010000  0.000000
 -0.050000 -0.010000  0.000000
 -0.040000 -0.010000  0.000000
 -0.030000 -0.010000  0.000000