<?xml version="1.0" encoding="UTF-8"?>
<VTKFile type="UnstructuredGrid" version="1.0" byte_order="LittleEndian">
<UnstructuredGrid>
  <Piece NumberOfPoints="1555" NumberOfCells="1555">
      <PointData>
        <DataArray type="Int32" Name="Type" format="ascii">
 1 1 1 1 1 1 1 1 1 1
 1 1 1 1 1 1 1 1 1 1
 1 1 1 1 1 1 1 1 1 1
 1 1 1 1 1 1 1 1 1 1
 1 1 1 1 1 1 1 1 1 1
 1 1 1 1 1 1 1 1 1 1
 1 3 3 3 3 3 3 3 3 3
 3 3 3 3 3 3 3 3 3 3
 3 3 3 3 3 3 3 3 3 3
 3 3 3 3 3 3 3 3 3 3
 3 3 3 3 3 3 3 3 3 3
 3 3 3 3 3 3 3 3 3 3
 3 3 3 3 3 3 3 3 3 3
 1 1 1 1 1 1 1 1 1 1
 1 1 1 1 1 1 1 1 1 1
 1 1 1 1 1 1 1 1 1 1
 1 1 1 1 1 1 1 1 1 1
 1 1 1 1 1 1 1 1 1 1
 1 1 1 1 1 1 1 1 1 1
 1 2 2 2 2 2 2 2 2 2
 2 2 2 2 2 2 2 2 2 2
 2 2 2 2 2 2 2 2 2 2
 2 2 2 2 2 2 2 2 2 2
 2 2 2 2 2 2 2 2 2 2
 2 2 2 2 2 2 2 2 2 2
 2 2 2 2 2 2 2 2 2 2
 2 2 2 2 2 2 2 2 2 2
 2 2 2 2 2 2 2 2 2 2
 2 2 2 2 2 2 2 2 2 2
 2 2 2 2 2 2 2 2 2 2
 2 2 2 2 2 2 2 2 2 2
 2 2 2 2 2 2 2 2 2 2
 2 2 2 2 2 2 2 2 2 2
 2 2 2 2 2 2 2 2 2 2
 2 2 2 2 2 2 2 2 2 2
 2 2 2 2 2 2 2 2 2 2
 2 2 2 2 2 2 2 2 2 2
 2 2 2 2 2 2 2 2 2 2
 2 2 2 2 2 2 2 2 2 2
 2 2 2 2 2 2 2 2 2 2
 2 2 2 2 2 2 2 2 2 2
 2 2 2 2 2 2 2 2 2 2
 2 2 2 2 2 2 2 2 2 2
 2 2 2 2 2 2 2 2 2 2
 2 2 2 2 2 2 2 2 2 2
 2 2 2 2 2 2 2 2 2 2
 2 2 2 2 2 2 2 2 2 2
 2 2 2 2 2 2 2 2 2 2
 2 2 2 2 2 2 2 2 2 2
 2 2 2 2 2 2 2 2 2 2
 2 2 2 2 2 2 2 2 2 2
 2 2 2 2 2 2 2 2 2 2
 2 2 2 2 2 2 2 2 2 2
 2 2 2 2 2 2 2 2 2 2
 2 2 2 2 2 2 2 2 2 2
 2 2 2 2 2 2 2 2 2 2
 2 2 2 2 2 2 2 2 2 2
 2 2 2 2 2 2 2 2 2 2
 2 2 2 2 2 2 2 2 2 2
 2 2 2 2 2 2 2 2 2 2
 2 2 2 2 2 2 2 2 2 2
 2 2 2 2 2 2 2 2 2 2
 2 2 2 2 2 2 2 2 2 2
 2 2 2 2 2 2 2 2 2 2
 2 2 2 2 2 2 2 2 2 2
 2 2 2 2 2 2 2 2 2 2
 2 2 2 2 2 2 2 2 2 2
 2 2 2 2 2 2 2 2 2 2
 2 2 2 2 2 2 2 2 2 2
 2 2 2 2 2 2 2 2 2 2
 2 2 2 2 2 2 2 2 2 2
 2 2 2 2 2 2 2 2 2 2
 2 2 2 2 2 2 2 2 2 2
 2 2 2 2 2 2 2 2 2 2
 2 2 2 2 2 2 2 2 2 2
 2 2 2 2 2 2 2 2 2 2
 2 2 2 2 2 2 2 2 2 2
 2 2 2 2 2 2 2 2 2 2
 2 2 2 2 2 2 2 2 2 2
 2 0 0 0 0 0 0 0 0 0
 0 0 0 0 0 0 0 0 0 0
 0 0 0 0 0 0 0 0 0 0
 0 0 0 0 0 0 0 0 0 0
 0 0 0 0 0 0 0 0 0 0
 0 0 0 0 0 0 0 0 0 0
 0 0 0 0 0 0 0 0 0 0
 0 0 0 0 0 0 0 0 0 0
 0 0 0 0 0 0 0 0 0 0
 0 0 0 0 0 0 0 0 0 0
 0 0 0 0 0 0 0 0 0 0
 0 0 0 0 0 0 0 0 0 0
 0 0 0 0 0 0 0 0 0 0
 0 0 0 0 0 0 0 0 0 0
 0 0 0 0 0 0 0 0 0 0
 0 0 0 0 0 0 0 0 0 0
 0 0 0 0 0 0 0 0 0 0
 0 0 0 0 0 0 0 0 0 0
 0 0 0 0 0 0 0 0 0 0
 0 0 0 0 0 0 0 0 0 0
 0 0 0 0 0 0 0 0 0 0
 0 0 0 0 0 0 0 0 0 0
 0 0 0 0 0 0 0 0 0 0
 0 0 0 0 0 0 0 0 0 0
 0 0 0 0 0 0 0 0 0 0
 0 0 0 0 0 0 0 0 0 0
 0 0 0 0 0 0 0 0 0 0
 0 0 0 0 0 0 0 0 0 0
 0 0 0 0 0 0 0 0 0 0
 0 0 0 0 0 0 0 0 0 0
 0 0 0 0 0 0 0 0 0 0
 0 0 0 0 0 0 0 0 0 0
 0 0 0 0 0 0 0 0 0 0
 0 0 0 0 0 0 0 0 0 0
 0 0 0 0 0 0 0 0 0 0
 0 0 0 0 0 0 0 0 0 0
 0 0 0 0 0 0 0 0 0 0
 0 0 0 0 0 0 0 0 0 0
 0 0 0 0 0 0 0 0 0 0
 0 0 0 0 0 0 0 0 0 0
 0 0 0 0 0 0 0 0 0 0
 0 0 0 0 0 0 0 0 0 0
 0 0 0 0 0 0 0 0 0 0
 0 0 0 0 0 0 0 0 0 0
 0 0 0 0 0 0 0 0 0 0
 0 0 0 0 0 0 0 0 0 0
 0 0 0 0 0 0 0 0 0 0
 0 0 0 0 0 0 0 0 0 0
 0 0 0 0 0 0 0 0 0 0
 0 0 0 0 0 0 0 0 0 0
 0 0 0 0 0 0 0 0 0 0
 0 0 0 0 0 0 0 0 0 0
 0 0 0 0 0 0 0 0 0 0
 0 0 0 0 0 0 0 0 0 0
 0 0 0 0 0 0 0 0 0 0
 0 0 0 0 0 0 0 0 0 0
 0 0 0 0 0 0 0 0 0 0
 0 0 0 0 0 0 0 0 0 0
 0 0 0 0 0 0 0 0 0 0
 0 0 0 0 0 0 0 0 0 0
 0 0 0 0 0 0 0 0 0 0
 0 0 0 0 0 0 0 0 0 0
 0 0 0 0 0 0 0 0 0 0
 0 0 0 0 0 0 0 0 0 0
 0 0 0 0 0 0 0 0 0 0
 0 0 0 0 0 0 0 0 0 0
 0 0 0 0 0 0 0 0 0 0
 0 0 0 0 0 0 0 0 0 0
 0 0 0 0 0 0 0 0 0 0
 0 0 0 0 0 0 0 0 0 0
 0 0 0 0 0 0 0 0 0 0
 0 0 0 0 0 0 0 0 0 0
 0 0 0 0 0 0 0 0 0 0
 0 0 0 0 0 0 0 0 0 0
 0 0 0 0 0 0 0 0 0 0
 0 0 0 0 0 0 0 0 0 0
 0 0 0 0 0
        </DataArray>
      </PointData>
      <Points>
        <DataArray type="Float32" NumberOfComponents="3" format="ascii">
  0.000000  0.500000  0.000000
  0.000000  0.490000  0.000000
  0.000000  0.480000  0.000000
  0.000000  0.470000  0.000000
  0.000000  0.460000  0.000000
  0.000000  0.450000  0.000000
  0.000000  0.440000  0.000000
  0.000000  0.430000  0.000000
  0.000000  0.420000  0.000000
  0.000000  0.410000  0.000000
  0.000000  0.400000  0.000000
  0.000000  0.390000  0.000000
  0.000000  0.380000  0.000000
  0.000000  0.370000  0.000000
  0.000000  0.360000  0.000000
  0.000000  0.350000  0.000000
  0.000000  0.340000  0.000000
  0.000000  0.330000  0.000000
  0.000000  0.320000  0.000000
  0.000000  0.310000  0.000000
  0.000000  0.300000  0.000000
  0.000000  0.290000  0.000000
  0.000000  0.280000  0.000000
  0.000000  0.270000  0.000000
  0.000000  0.260000  0.000000
  0.000000  0.250000  0.000000
  0.000000  0.240000  0.000000
  0.000000  0.230000  0.000000
  0.000000  0.220000  0.000000
  0.000000  0.210000  0.000000
  0.000000  0.200000  0.000000
  0.000000  0.190000  0.000000
  0.000000  0.180000  0.000000
  0.000000  0.170000  0.000000
  0.000000  0.160000  0.000000
  0.000000  0.150000  0.000000
  0.000000  0.140000  0.000000
  0.000000  0.130000  0.000000
  0.000000  0.120000  0.000000
  0.000000  0.110000  0.000000
  0.000000  0.100000  0.000000
  0.000000  0.090000  0.000000
  0.000000  0.080000  0.000000
  0.000000  0.070000  0.000000
  0.000000  0.060000  0.000000
  0.000000  0.050000  0.000000
  0.000000  0.040000  0.000000
  0.000000  0.030000  0.000000
  0.000000  0.020000  0.000000
  0.000000  0.010000  0.000000
 -0.100000  0.000000  0.000000
 -0.090000  0.000000  0.000000
 -0.080000  0.000000  0.000000
 -0.070000  0.000000  0.000000
 -0.060000  0.000000  0.000000
 -0.050000  0.000000  0.000000
 -0.040000  0.000000  0.000000
 -0.030000  0.000000  0.000000
 -0.020000  0.000000  0.000000
 -0.010000  0.000000  0.000000
 -0.000000  0.000000  0.000000
  0.010000  0.000000  0.000000
  0.020000  0.000000  0.000000
  0.030000  0.000000  0.000000
  0.040000  0.000000  0.000000
  0.050000  0.000000  0.000000
  0.060000  0.000000  0.000000
  0.070000  0.000000  0.000000
  0.080000  0.000000  0.000000
  0.090000  0.000000  0.000000
  0.100000  0.000000  0.000000
  0.110000  0.000000  0.000000
  0.120000  0.000000  0.000000
  0.130000  0.000000  0.000000
  0.140000  0.000000  0.000000
  0.150000  0.000000  0.000000
  0.160000  0.000000  0.000000
  0.170000  0.000000  0.000000
  0.180000  0.000000  0.000000
  0.190000  0.000000  0.000000
  0.200000  0.000000  0.000000
  0.210000  0.000000  0.000000
  0.220000  0.000000  0.000000
  0.230000  0.000000  0.000000
  0.240000  0.000000  0.000000
  0.250000  0.000000  0.000000
  0.260000  0.000000  0.000000
  0.270000  0.000000  0.000000
  0.280000  0.000000  0.000000
  0.290000  0.000000  0.000000
  0.300000  0.000000  0.000000
  0.310000  0.000000  0.000000
  0.320000  0.000000  0.000000
  0.330000  0.000000  0.000000
  0.340000  0.000000  0.000000
  0.350000  0.000000  0.000000
  0.360000  0.000000  0.000000
  0.370000  0.000000  0.000000
  0.380000  0.000000  0.000000
  0.390000  0.000000  0.000000
  0.400000  0.000000  0.000000
  0.410000  0.000000  0.000000
  0.420000  0.000000  0.000000
  0.430000  0.000000  0.000000
  0.440000  0.000000  0.000000
  0.450000  0.000000  0.000000
  0.460000  0.000000  0.000000
  0.470000  0.000000  0.000000
  0.480000  0.000000  0.000000
  0.490000  0.000000  0.000000
  0.500000  0.000000  0.000000
  0.510000  0.000000  0.000000
  0.520000  0.000000  0.000000
  0.530000  0.000000  0.000000
  0.540000  0.000000  0.000000
  0.550000  0.000000  0.000000
  0.560000  0.000000  0.000000
  0.570000  0.000000  0.000000
  0.580000  0.000000  0.000000
  0.590000  0.000000  0.000000
  0.600000  0.000000  0.000000
  0.610000  0.000000  0.000000
  0.620000  0.000000  0.000000
  0.630000  0.000000  0.000000
  0.640000  0.000000  0.000000
  0.650000  0.000000  0.000000
  0.660000  0.000000  0.000000
  0.670000  0.000000  0.000000
  0.680000  0.000000  0.000000
  0.690000  0.000000  0.000000
  0.700000  0.000000  0.000000
  0.710000  0.000000  0.000000
  0.720000  0.000000  0.000000
  0.730000  0.000000  0.000000
  0.740000  0.000000  0.000000
  0.750000  0.000000  0.000000
  0.760000  0.000000  0.000000
  0.770000  0.000000  0.000000
  0.780000  0.000000  0.000000
  0.790000  0.000000  0.000000
  0.800000  0.000000  0.000000
  0.700000  0.010000  0.000000
  0.700000  0.020000  0.000000
  0.700000  0.030000  0.000000
  0.700000  0.040000  0.000000
  0.700000  0.050000  0.000000
  0.700000  0.060000  0.000000
  0.700000  0.070000  0.000000
  0.700000  0.080000  0.000000
  0.700000  0.090000  0.000000
  0.700000  0.100000  0.000000
  0.700000  0.110000  0.000000
  0.700000  0.120000  0.000000
  0.700000  0.130000  0.000000
  0.700000  0.140000  0.000000
  0.700000  0.150000  0.000000
  0.700000  0.160000  0.000000
  0.700000  0.170000  0.000000
  0.700000  0.180000  0.000000
  0.700000  0.190000  0.000000
  0.700000  0.200000  0.000000
  0.700000  0.210000  0.000000
  0.700000  0.220000  0.000000
  0.700000  0.230000  0.000000
  0.700000  0.240000  0.000000
  0.700000  0.250000  0.000000
  0.700000  0.260000  0.000000
  0.700000  0.270000  0.000000
  0.700000  0.280000  0.000000
  0.700000  0.290000  0.000000
  0.700000  0.300000  0.000000
  0.700000  0.310000  0.000000
  0.700000  0.320000  0.000000
  0.700000  0.330000  0.000000
  0.700000  0.340000  0.000000
  0.700000  0.350000  0.000000
  0.700000  0.360000  0.000000
  0.700000  0.370000  0.000000
  0.700000  0.380000  0.000000
  0.700000  0.390000  0.000000
  0.700000  0.400000  0.000000
  0.700000  0.410000  0.000000
  0.700000  0.420000  0.000000
  0.700000  0.430000  0.000000
  0.700000  0.440000  0.000000
  0.700000  0.450000  0.000000
  0.700000  0.460000  0.000000
  0.700000  0.470000  0.000000
  0.700000  0.480000  0.000000
  0.700000  0.490000  0.000000
  0.700000  0.500000  0.000000
  0.009326  0.010458  0.000000
  0.014153  0.018347  0.000000
  0.026716  0.014428  0.000000
  0.009871  0.025047  0.000000
  0.022274  0.025863  0.000000
  0.010110  0.034891  0.000000
  0.023368  0.031683  0.000000
  0.015566  0.040964  0.000000
  0.024281  0.043989  0.000000
  0.008838  0.047951  0.000000
  0.018111  0.055170  0.000000
  0.009108  0.059087  0.000000
  0.012143  0.068321  0.000000
  0.013179  0.074080  0.000000
  0.010782  0.082344  0.000000
  0.011342  0.089363  0.000000
  0.012508  0.096875  0.000000
  0.010171  0.104081  0.000000
  0.011624  0.112088  0.000000
  0.010720  0.119662  0.000000
  0.010961  0.127932  0.000000
  0.011046  0.135320  0.000000
  0.010765  0.143775  0.000000
  0.011772  0.151033  0.000000
  0.010280  0.159128  0.000000
  0.012861  0.166569  0.000000
  0.009442  0.174012  0.000000
  0.013972  0.182541  0.000000
  0.008898  0.188663  0.000000
  0.015466  0.195254  0.000000
  0.035311  0.010046  0.000000
  0.020032  0.008573  0.000000
  0.041685  0.013775  0.000000
  0.032843  0.022517  0.000000
  0.040418  0.026803  0.000000
  0.038778  0.034921  0.000000
  0.047705  0.039446  0.000000
  0.031100  0.039463  0.000000
  0.039227  0.051188  0.000000
  0.026690  0.053355  0.000000
  0.035462  0.062170  0.000000
  0.024393  0.062063  0.000000
  0.030646  0.070677  0.000000
  0.023760  0.074512  0.000000
  0.030854  0.081848  0.000000
  0.025525  0.086697  0.000000
  0.025471  0.094681  0.000000
  0.026375  0.100966  0.000000
  0.025812  0.108268  0.000000
  0.024926  0.114380  0.000000
  0.024961  0.121621  0.000000
  0.025167  0.128153  0.000000
  0.024978  0.135321  0.000000
  0.025235  0.141808  0.000000
  0.025069  0.149217  0.000000
  0.025221  0.156235  0.000000
  0.024482  0.164492  0.000000
  0.024383  0.172415  0.000000
  0.023605  0.181250  0.000000
  0.023203  0.193207  0.000000
  0.061070  0.009387  0.000000
  0.049075  0.009215  0.000000
  0.058039  0.017370  0.000000
  0.047376  0.023951  0.000000
  0.059466  0.024157  0.000000
  0.058096  0.032025  0.000000
  0.074147  0.032727  0.000000
  0.055534  0.038870  0.000000
  0.061473  0.049716  0.000000
  0.041374  0.047608  0.000000
  0.053697  0.059517  0.000000
  0.044750  0.062170  0.000000
  0.043068  0.071390  0.000000
  0.043988  0.078233  0.000000
  0.047302  0.085224  0.000000
  0.037871  0.089182  0.000000
  0.044360  0.096233  0.000000
  0.039881  0.101085  0.000000
  0.041108  0.108538  0.000000
  0.040435  0.114713  0.000000
  0.040253  0.121636  0.000000
  0.039851  0.127697  0.000000
  0.039758  0.135292  0.000000
  0.038939  0.142625  0.000000
  0.038221  0.150810  0.000000
  0.036822  0.159546  0.000000
  0.035440  0.168621  0.000000
  0.034719  0.178062  0.000000
  0.033733  0.186705  0.000000
  0.032701  0.193220  0.000000
  0.080733  0.012553  0.000000
  0.072064  0.009134  0.000000
  0.082873  0.019241  0.000000
  0.068953  0.019556  0.000000
  0.085153  0.031968  0.000000
  0.075579  0.027590  0.000000
  0.082360  0.044378  0.000000
  0.066798  0.040408  0.000000
  0.073024  0.056068  0.000000
  0.053908  0.051666  0.000000
  0.073555  0.059199  0.000000
  0.062535  0.063886  0.000000
  0.065325  0.070979  0.000000
  0.054184  0.071549  0.000000
  0.061568  0.079681  0.000000
  0.059399  0.085775  0.000000
  0.056842  0.093380  0.000000
  0.057437  0.098921  0.000000
  0.056660  0.107150  0.000000
  0.056048  0.112098  0.000000
  0.055662  0.119348  0.000000
  0.054774  0.126698  0.000000
  0.053248  0.133884  0.000000
  0.051553  0.141353  0.000000
  0.049795  0.149629  0.000000
  0.048595  0.157367  0.000000
  0.047441  0.165503  0.000000
  0.047022  0.173164  0.000000
  0.046123  0.181671  0.000000
  0.045868  0.191440  0.000000
  0.099394  0.010943  0.000000
  0.090196  0.008880  0.000000
  0.101550  0.019479  0.000000
  0.092213  0.022235  0.000000
  0.110174  0.026463  0.000000
  0.096406  0.030238  0.000000
  0.090816  0.039404  0.000000
  0.102854  0.042716  0.000000
  0.072291  0.045102  0.000000
  0.093289  0.051221  0.000000
  0.086539  0.051272  0.000000
  0.085347  0.063580  0.000000
  0.083134  0.068146  0.000000
  0.074468  0.074523  0.000000
  0.078143  0.080781  0.000000
  0.073292  0.086140  0.000000
  0.075154  0.093675  0.000000
  0.072520  0.098685  0.000000
  0.072656  0.105123  0.000000
  0.071303  0.112533  0.000000
  0.069894  0.119238  0.000000
  0.067986  0.126153  0.000000
  0.066158  0.133787  0.000000
  0.064517  0.141371  0.000000
  0.063542  0.149001  0.000000
  0.062144  0.156783  0.000000
  0.060556  0.165361  0.000000
  0.058827  0.174240  0.000000
  0.056866  0.183392  0.000000
  0.055040  0.190843  0.000000
  0.120508  0.010846  0.000000
  0.110338  0.008914  0.000000
  0.122056  0.024542  0.000000
  0.112223  0.018292  0.000000
  0.134078  0.025438  0.000000
  0.117748  0.032325  0.000000
  0.129411  0.034086  0.000000
  0.103662  0.035524  0.000000
  0.114591  0.041742  0.000000
  0.106886  0.050558  0.000000
  0.110989  0.059942  0.000000
  0.100439  0.057716  0.000000
  0.098890  0.065401  0.000000
  0.094585  0.071804  0.000000
  0.091418  0.078675  0.000000
  0.092652  0.084525  0.000000
  0.090488  0.091296  0.000000
  0.090522  0.096952  0.000000
  0.087839  0.103989  0.000000
  0.086506  0.110223  0.000000
  0.084533  0.116689  0.000000
  0.082739  0.123752  0.000000
  0.080853  0.131335  0.000000
  0.079112  0.138267  0.000000
  0.076759  0.146328  0.000000
  0.074032  0.154508  0.000000
  0.071771  0.162830  0.000000
  0.069764  0.171522  0.000000
  0.068451  0.180208  0.000000
  0.068681  0.189288  0.000000
  0.143890  0.008478  0.000000
  0.129568  0.009205  0.000000
  0.141443  0.015520  0.000000
  0.130005  0.018049  0.000000
  0.156656  0.027413  0.000000
  0.147096  0.022241  0.000000
  0.141610  0.031744  0.000000
  0.132633  0.041249  0.000000
  0.121620  0.043888  0.000000
  0.133593  0.049456  0.000000
  0.120075  0.053901  0.000000
  0.123582  0.058818  0.000000
  0.118468  0.067780  0.000000
  0.109034  0.071042  0.000000
  0.111841  0.077918  0.000000
  0.108121  0.082457  0.000000
  0.107756  0.089893  0.000000
  0.105612  0.095622  0.000000
  0.104045  0.102267  0.000000
  0.102286  0.108830  0.000000
  0.099965  0.115979  0.000000
  0.097758  0.122790  0.000000
  0.094897  0.129892  0.000000
  0.091553  0.137584  0.000000
  0.088843  0.145591  0.000000
  0.086664  0.153824  0.000000
  0.084841  0.162118  0.000000
  0.083138  0.170579  0.000000
  0.080600  0.179490  0.000000
  0.078193  0.187524  0.000000
  0.166587  0.009124  0.000000
  0.156083  0.010431  0.000000
  0.172081  0.022455  0.000000
  0.156987  0.017375  0.000000
  0.182915  0.024391  0.000000
  0.165825  0.023857  0.000000
  0.172691  0.033901  0.000000
  0.149862  0.034652  0.000000
  0.157771  0.040704  0.000000
  0.146106  0.042363  0.000000
  0.149919  0.050853  0.000000
  0.137340  0.053880  0.000000
  0.139037  0.062861  0.000000
  0.131134  0.068313  0.000000
  0.127849  0.073195  0.000000
  0.127952  0.080614  0.000000
  0.123331  0.086496  0.000000
  0.123479  0.092123  0.000000
  0.120677  0.098637  0.000000
  0.118591  0.105550  0.000000
  0.115756  0.111875  0.000000
  0.112868  0.118769  0.000000
  0.109095  0.126627  0.000000
  0.106016  0.134234  0.000000
  0.103084  0.142496  0.000000
  0.100256  0.150422  0.000000
  0.097230  0.158576  0.000000
  0.093801  0.167482  0.000000
  0.091171  0.176902  0.000000
  0.090830  0.185807  0.000000
  0.187529  0.008780  0.000000
  0.175344  0.010916  0.000000
  0.199846  0.013852  0.000000
  0.183264  0.015020  0.000000
  0.201894  0.024848  0.000000
  0.194070  0.022050  0.000000
  0.187713  0.031551  0.000000
  0.182279  0.037197  0.000000
  0.166674  0.037134  0.000000
  0.173829  0.046558  0.000000
  0.164443  0.049293  0.000000
  0.153737  0.053999  0.000000
  0.157771  0.066566  0.000000
  0.146266  0.064730  0.000000
  0.150243  0.071817  0.000000
  0.143315  0.077528  0.000000
  0.143298  0.083650  0.000000
  0.140166  0.088841  0.000000
  0.137427  0.096206  0.000000
  0.135102  0.102110  0.000000
  0.131627  0.109076  0.000000
  0.127690  0.116467  0.000000
  0.123672  0.124034  0.000000
  0.119837  0.131930  0.000000
  0.116117  0.139801  0.000000
  0.112344  0.148171  0.000000
  0.109106  0.157036  0.000000
  0.106932  0.165649  0.000000
  0.104327  0.174658  0.000000
  0.101867  0.183008  0.000000
  0.220912  0.011304  0.000000
  0.203547  0.009842  0.000000
  0.229687  0.016981  0.000000
  0.214214  0.013900  0.000000
  0.227790  0.026009  0.000000
  0.214029  0.021362  0.000000
  0.214994  0.029802  0.000000
  0.202332  0.032256  0.000000
  0.194591  0.039436  0.000000
  0.191336  0.046929  0.000000
  0.179706  0.049689  0.000000
  0.182936  0.059332  0.000000
  0.165354  0.057437  0.000000
  0.174717  0.061509  0.000000
  0.167298  0.067475  0.000000
  0.165610  0.075180  0.000000
  0.161231  0.080766  0.000000
  0.157266  0.085644  0.000000
  0.155085  0.092985  0.000000
  0.152115  0.098209  0.000000
  0.147543  0.105950  0.000000
  0.143272  0.112332  0.000000
  0.138370  0.120475  0.000000
  0.134196  0.128061  0.000000
  0.129760  0.136284  0.000000
  0.126159  0.144714  0.000000
  0.122847  0.153016  0.000000
  0.118909  0.162009  0.000000
  0.114974  0.171432  0.000000
  0.112942  0.180426  0.000000
  0.253390  0.010920  0.000000
  0.232036  0.010105  0.000000
  0.259678  0.013833  0.000000
  0.244245  0.011744  0.000000
  0.250022  0.024393  0.000000
  0.242340  0.018126  0.000000
  0.233796  0.028425  0.000000
  0.231970  0.036385  0.000000
  0.217329  0.035091  0.000000
  0.220025  0.043681  0.000000
  0.207064  0.041054  0.000000
  0.204997  0.048214  0.000000
  0.193489  0.053265  0.000000
  0.197171  0.060461  0.000000
  0.186535  0.068006  0.000000
  0.185975  0.071624  0.000000
  0.179180  0.078074  0.000000
  0.177318  0.083634  0.000000
  0.174136  0.088949  0.000000
  0.169747  0.095768  0.000000
  0.165076  0.101503  0.000000
  0.159401  0.108897  0.000000
  0.154181  0.116288  0.000000
  0.148832  0.124496  0.000000
  0.144058  0.132199  0.000000
  0.139745  0.141177  0.000000
  0.135062  0.149713  0.000000
  0.130895  0.158854  0.000000
  0.127617  0.168215  0.000000
  0.125291  0.176577  0.000000
  0.290474  0.011121  0.000000
  0.270499  0.010249  0.000000
  0.291912  0.014237  0.000000
  0.278493  0.011466  0.000000
  0.282034  0.021163  0.000000
  0.265907  0.018672  0.000000
  0.264221  0.027413  0.000000
  0.260004  0.033826  0.000000
  0.247994  0.029527  0.000000
  0.244687  0.037184  0.000000
  0.236576  0.043618  0.000000
  0.226362  0.047978  0.000000
  0.213104  0.052320  0.000000
  0.220909  0.058066  0.000000
  0.209151  0.061040  0.000000
  0.206300  0.065646  0.000000
  0.203403  0.074378  0.000000
  0.198705  0.077106  0.000000
  0.195300  0.083771  0.000000
  0.190072  0.089701  0.000000
  0.184713  0.096648  0.000000
  0.176574  0.103882  0.000000
  0.170173  0.111698  0.000000
  0.164103  0.119821  0.000000
  0.158622  0.127849  0.000000
  0.153555  0.136744  0.000000
  0.148424  0.145226  0.000000
  0.144124  0.154364  0.000000
  0.139401  0.164329  0.000000
  0.135744  0.173512  0.000000
  0.349358  0.012164  0.000000
  0.315711  0.013042  0.000000
  0.326234  0.010561  0.000000
  0.307038  0.009692  0.000000
  0.318294  0.020916  0.000000
  0.304395  0.016443  0.000000
  0.290253  0.027522  0.000000
  0.290386  0.034804  0.000000
  0.276708  0.024849  0.000000
  0.271067  0.034393  0.000000
  0.262753  0.045027  0.000000
  0.255206  0.042198  0.000000
  0.244485  0.047885  0.000000
  0.246722  0.054851  0.000000
  0.231793  0.056140  0.000000
  0.233227  0.061350  0.000000
  0.226857  0.070478  0.000000
  0.220817  0.069722  0.000000
  0.217537  0.077345  0.000000
  0.211834  0.083819  0.000000
  0.203644  0.091158  0.000000
  0.194512  0.097962  0.000000
  0.187154  0.106390  0.000000
  0.180892  0.114569  0.000000
  0.174140  0.122749  0.000000
  0.168240  0.131424  0.000000
  0.162376  0.140432  0.000000
  0.156787  0.149831  0.000000
  0.151695  0.160194  0.000000
  0.149045  0.168286  0.000000
  0.379571  0.012017  0.000000
  0.357998  0.013771  0.000000
  0.363921  0.010841  0.000000
  0.340754  0.010276  0.000000
  0.357813  0.026474  0.000000
  0.330133  0.014812  0.000000
  0.319857  0.030067  0.000000
  0.321853  0.036825  0.000000
  0.301921  0.023795  0.000000
  0.299934  0.033654  0.000000
  0.297802  0.045343  0.000000
  0.280852  0.037245  0.000000
  0.275859  0.043475  0.000000
  0.276236  0.050619  0.000000
  0.263506  0.053876  0.000000
  0.256213  0.055136  0.000000
  0.252558  0.067310  0.000000
  0.244840  0.064228  0.000000
  0.241161  0.071913  0.000000
  0.233468  0.078812  0.000000
  0.223351  0.085261  0.000000
  0.213965  0.092260  0.000000
  0.206804  0.100391  0.000000
  0.198343  0.108758  0.000000
  0.190216  0.116202  0.000000
  0.183509  0.125854  0.000000
  0.176596  0.134749  0.000000
  0.169920  0.144739  0.000000
  0.164492  0.155168  0.000000
  0.159681  0.163826  0.000000
  0.419660  0.012237  0.000000
  0.399441  0.011299  0.000000
  0.408622  0.011389  0.000000
  0.391013  0.011215  0.000000
  0.376001  0.023930  0.000000
  0.374096  0.012349  0.000000
  0.343802  0.018987  0.000000
  0.355475  0.036730  0.000000
  0.329248  0.024319  0.000000
  0.337971  0.029254  0.000000
  0.331111  0.037520  0.000000
  0.309023  0.029729  0.000000
  0.309543  0.040575  0.000000
  0.308690  0.046868  0.000000
  0.290257  0.047492  0.000000
  0.287162  0.053400  0.000000
  0.281513  0.060912  0.000000
  0.271061  0.060761  0.000000
  0.267329  0.066666  0.000000
  0.257936  0.073452  0.000000
  0.245686  0.079689  0.000000
  0.236220  0.086039  0.000000
  0.227301  0.093890  0.000000
  0.218722  0.101337  0.000000
  0.208052  0.108396  0.000000
  0.201111  0.119093  0.000000
  0.191232  0.128198  0.000000
  0.184230  0.138662  0.000000
  0.177013  0.149545  0.000000
  0.172066  0.158055  0.000000
  0.456260  0.013790  0.000000
  0.444902  0.012056  0.000000
  0.420241  0.013119  0.000000
  0.418559  0.027632  0.000000
  0.406803  0.021236  0.000000
  0.388252  0.019089  0.000000
  0.402160  0.023284  0.000000
  0.390351  0.026470  0.000000
  0.365175  0.022325  0.000000
  0.374547  0.031679  0.000000
  0.360933  0.032814  0.000000
  0.343746  0.026740  0.000000
  0.345573  0.041708  0.000000
  0.342194  0.041001  0.000000
  0.326824  0.046949  0.000000
  0.319757  0.048673  0.000000
  0.312064  0.057335  0.000000
  0.301793  0.056117  0.000000
  0.296908  0.062402  0.000000
  0.282485  0.069311  0.000000
  0.270648  0.073813  0.000000
  0.260201  0.080086  0.000000
  0.250963  0.087023  0.000000
  0.240291  0.093824  0.000000
  0.229516  0.101228  0.000000
  0.218441  0.111253  0.000000
  0.206255  0.120454  0.000000
  0.198896  0.131656  0.000000
  0.190427  0.143076  0.000000
  0.184567  0.151767  0.000000
  0.477829  0.018951  0.000000
  0.483172  0.011483  0.000000
  0.475415  0.010626  0.000000
  0.446981  0.019299  0.000000
  0.452058  0.028641  0.000000
  0.435057  0.009622  0.000000
  0.437435  0.019182  0.000000
  0.430056  0.021310  0.000000
  0.406501  0.036877  0.000000
  0.413463  0.033006  0.000000
  0.398171  0.034393  0.000000
  0.383851  0.032223  0.000000
  0.385546  0.042450  0.000000
  0.374547  0.041143  0.000000
  0.366171  0.044342  0.000000
  0.356530  0.049268  0.000000
  0.341100  0.052292  0.000000
  0.333666  0.054944  0.000000
  0.323286  0.059919  0.000000
  0.308937  0.065919  0.000000
  0.296520  0.068689  0.000000
  0.288197  0.074643  0.000000
  0.277577  0.080981  0.000000
  0.265494  0.087326  0.000000
  0.252193  0.093797  0.000000
  0.241352  0.102150  0.000000
  0.227498  0.111150  0.000000
  0.216911  0.120895  0.000000
  0.205409  0.135315  0.000000
  0.198212  0.144213  0.000000
  0.514802  0.013538  0.000000
  0.517557  0.009860  0.000000
  0.501219  0.012171  0.000000
  0.494424  0.011897  0.000000
  0.491608  0.021022  0.000000
  0.461770  0.009787  0.000000
  0.461437  0.020756  0.000000
  0.467495  0.024485  0.000000
  0.444877  0.033545  0.000000
  0.437900  0.047028  0.000000
  0.440503  0.037607  0.000000
  0.427790  0.027464  0.000000
  0.425170  0.038902  0.000000
  0.415601  0.048218  0.000000
  0.396983  0.042203  0.000000
  0.388321  0.049210  0.000000
  0.374119  0.049755  0.000000
  0.363069  0.054608  0.000000
  0.352421  0.055434  0.000000
  0.338830  0.061355  0.000000
  0.326462  0.065047  0.000000
  0.317988  0.070634  0.000000
  0.306646  0.076192  0.000000
  0.292507  0.080440  0.000000
  0.279229  0.087047  0.000000
  0.266845  0.093633  0.000000
  0.252663  0.104435  0.000000
  0.233541  0.115156  0.000000
  0.219314  0.128125  0.000000
  0.211298  0.135220  0.000000
  0.545503  0.010903  0.000000
  0.531321  0.015249  0.000000
  0.533262  0.010860  0.000000
  0.528357  0.021732  0.000000
  0.530197  0.037162  0.000000
  0.505498  0.021987  0.000000
  0.497462  0.037311  0.000000
  0.499878  0.024350  0.000000
  0.484228  0.026956  0.000000
  0.483232  0.032648  0.000000
  0.470784  0.032666  0.000000
  0.462595  0.034950  0.000000
  0.452700  0.037617  0.000000
  0.439887  0.048537  0.000000
  0.424517  0.039623  0.000000
  0.421804  0.055226  0.000000
  0.405049  0.049073  0.000000
  0.398515  0.054951  0.000000
  0.383684  0.057458  0.000000
  0.373051  0.061387  0.000000
  0.358624  0.063816  0.000000
  0.347943  0.068609  0.000000
  0.335618  0.074381  0.000000
  0.320448  0.077254  0.000000
  0.308242  0.082708  0.000000
  0.295515  0.091228  0.000000
  0.281319  0.095804  0.000000
  0.261803  0.101509  0.000000
  0.241266  0.111688  0.000000
  0.226578  0.127179  0.000000
  0.570000  0.009336  0.000000
  0.557173  0.017482  0.000000
  0.559000  0.012042  0.000000
  0.549008  0.015183  0.000000
  0.540462  0.025388  0.000000
  0.519738  0.033434  0.000000
  0.516408  0.024046  0.000000
  0.503574  0.036638  0.000000
  0.515887  0.034227  0.000000
  0.493174  0.050270  0.000000
  0.496597  0.043911  0.000000
  0.479400  0.042059  0.000000
  0.476646  0.049220  0.000000
  0.467119  0.044234  0.000000
  0.458681  0.047004  0.000000
  0.445005  0.058025  0.000000
  0.428256  0.063854  0.000000
  0.419494  0.056811  0.000000
  0.404265  0.061647  0.000000
  0.394601  0.063265  0.000000
  0.383909  0.066393  0.000000
  0.369481  0.069884  0.000000
  0.353716  0.071553  0.000000
  0.345505  0.075237  0.000000
  0.328964  0.082345  0.000000
  0.311918  0.085834  0.000000
  0.297443  0.091415  0.000000
  0.281267  0.097364  0.000000
  0.263684  0.104755  0.000000
  0.246012  0.114203  0.000000
 -0.010000  0.500000  0.000000
 -0.010000  0.490000  0.000000
 -0.010000  0.480000  0.000000
 -0.010000  0.470000  0.000000
 -0.010000  0.460000  0.000000
 -0.010000  0.450000  0.000000
 -0.010000  0.440000  0.000000
 -0.010000  0.430000  0.000000
 -0.010000  0.420000  0.000000
 -0.010000  0.410000  0.000000
 -0.010000  0.400000  0.000000
 -0.010000  0.390000  0.000000
 -0.010000  0.380000  0.000000
 -0.010000  0.370000  0.000000
 -0.010000  0.360000  0.000000
 -0.010000  0.350000  0.000000
 -0.010000  0.340000  0.000000
 -0.010000  0.330000  0.000000
 -0.010000  0.320000  0.000000
 -0.010000  0.310000  0.000000
 -0.010000  0.300000  0.000000
 -0.010000  0.290000  0.000000
 -0.010000  0.280000  0.000000
 -0.010000  0.270000  0.000000
 -0.010000  0.260000  0.000000
 -0.010000  0.250000  0.000000
 -0.010000  0.240000  0.000000
 -0.010000  0.230000  0.000000
 -0.010000  0.220000  0.000000
 -0.010000  0.210000  0.000000
 -0.010000  0.200000  0.000000
 -0.010000  0.190000  0.000000
 -0.010000  0.180000  0.000000
 -0.010000  0.170000  0.000000
 -0.010000  0.160000  0.000000
 -0.010000  0.150000  0.000000
 -0.010000  0.140000  0.000000
 -0.010000  0.130000  0.000000
 -0.010000  0.120000  0.000000
 -0.010000  0.110000  0.000000
 -0.010000  0.100000  0.000000
 -0.010000  0.090000  0.000000
 -0.010000  0.080000  0.000000
 -0.010000  0.070000  0.000000
 -0.010000  0.060000  0.000000
 -0.010000  0.050000  0.000000
 -0.010000  0.040000  0.000000
 -0.010000  0.030000  0.000000
 -0.010000  0.020000  0.000000
 -0.010000  0.010000  0.000000
 -0.100000 -0.010000  0.000000
 -0.090000 -0.010000  0.000000
 -0.080000 -0.010000  0.000000
 -0.070000 -0.010000  0.000000
 -0.060000 -0.010000  0.000000
 -0.050000 -0.010000  0.000000
 -0.040000 -0.010000  0.000000
 -0.030000 -0.010000  0.000000