<?xml version="1.0" encoding="UTF-8"?>
<VTKFile type="UnstructuredGrid" version="1.0" byte_order="LittleEndian">
<UnstructuredGrid>
  <Piece NumberOfPoints="1554" NumberOfCells="1554">
      <PointData>
        <DataArray type="Int32" Name="Type" format="ascii">
 1 1 1 1 1 1 1 1 1 1
 1 1 1 1 1 1 1 1 1 1
 1 1 1 1 1 1 1 1 1 1
 1 1 1 1 1 1 1 1 1 1
 1 1 1 1 1 1 1 1 1 1
 1 1 1 1 1 1 1 1 1 1
 1 3 3 3 3 3 3 3 3 3
 3 3 3 3 3 3 3 3 3 3
 3 3 3 3 3 3 3 3 3 3
 3 3 3 3 3 3 3 3 3 3
 3 3 3 3 3 3 3 3 3 3
 3 3 3 3 3 3 3 3 3 3
 3 3 3 3 3 3 3 3 3 3
 1 1 1 1 1 1 1 1 1 1
 1 1 1 1 1 1 1 1 1 1
 1 1 1 1 1 1 1 1 1 1
 1 1 1 1 1 1 1 1 1 1
 1 1 1 1 1 1 1 1 1 1
 1 1 1 1 1 1 1 1 1 1
 1 2 2 2 2 2 2 2 2 2
 2 2 2 2 2 2 2 2 2 2
 2 2 2 2 2 2 2 2 2 2
 2 2 2 2 2 2 2 2 2 2
 2 2 2 2 2 2 2 2 2 2
 2 2 2 2 2 2 2 2 2 2
 2 2 2 2 2 2 2 2 2 2
 2 2 2 2 2 2 2 2 2 2
 2 2 2 2 2 2 2 2 2 2
 2 2 2 2 2 2 2 2 2 2
 2 2 2 2 2 2 2 2 2 2
 2 2 2 2 2 2 2 2 2 2
 2 2 2 2 2 2 2 2 2 2
 2 2 2 2 2 2 2 2 2 2
 2 2 2 2 2 2 2 2 2 2
 2 2 2 2 2 2 2 2 2 2
 2 2 2 2 2 2 2 2 2 2
 2 2 2 2 2 2 2 2 2 2
 2 2 2 2 2 2 2 2 2 2
 2 2 2 2 2 2 2 2 2 2
 2 2 2 2 2 2 2 2 2 2
 2 2 2 2 2 2 2 2 2 2
 2 2 2 2 2 2 2 2 2 2
 2 2 2 2 2 2 2 2 2 2
 2 2 2 2 2 2 2 2 2 2
 2 2 2 2 2 2 2 2 2 2
 2 2 2 2 2 2 2 2 2 2
 2 2 2 2 2 2 2 2 2 2
 2 2 2 2 2 2 2 2 2 2
 2 2 2 2 2 2 2 2 2 2
 2 2 2 2 2 2 2 2 2 2
 2 2 2 2 2 2 2 2 2 2
 2 2 2 2 2 2 2 2 2 2
 2 2 2 2 2 2 2 2 2 2
 2 2 2 2 2 2 2 2 2 2
 2 2 2 2 2 2 2 2 2 2
 2 2 2 2 2 2 2 2 2 2
 2 2 2 2 2 2 2 2 2 2
 2 2 2 2 2 2 2 2 2 2
 2 2 2 2 2 2 2 2 2 2
 2 2 2 2 2 2 2 2 2 2
 2 2 2 2 2 2 2 2 2 2
 2 2 2 2 2 2 2 2 2 2
 2 2 2 2 2 2 2 2 2 2
 2 2 2 2 2 2 2 2 2 2
 2 2 2 2 2 2 2 2 2 2
 2 2 2 2 2 2 2 2 2 2
 2 2 2 2 2 2 2 2 2 2
 2 2 2 2 2 2 2 2 2 2
 2 2 2 2 2 2 2 2 2 2
 2 2 2 2 2 2 2 2 2 2
 2 2 2 2 2 2 2 2 2 2
 2 2 2 2 2 2 2 2 2 2
 2 2 2 2 2 2 2 2 2 2
 2 2 2 2 2 2 2 2 2 2
 2 2 2 2 2 2 2 2 2 2
 2 2 2 2 2 2 2 2 2 2
 2 2 2 2 2 2 2 2 2 2
 2 2 2 2 2 2 2 2 2 2
 2 2 2 2 2 2 2 2 2 2
 0 0 0 0 0 0 0 0 0 0
 0 0 0 0 0 0 0 0 0 0
 0 0 0 0 0 0 0 0 0 0
 0 0 0 0 0 0 0 0 0 0
 0 0 0 0 0 0 0 0 0 0
 0 0 0 0 0 0 0 0 0 0
 0 0 0 0 0 0 0 0 0 0
 0 0 0 0 0 0 0 0 0 0
 0 0 0 0 0 0 0 0 0 0
 0 0 0 0 0 0 0 0 0 0
 0 0 0 0 0 0 0 0 0 0
 0 0 0 0 0 0 0 0 0 0
 0 0 0 0 0 0 0 0 0 0
 0 0 0 0 0 0 0 0 0 0
 0 0 0 0 0 0 0 0 0 0
 0 0 0 0 0 0 0 0 0 0
 0 0 0 0 0 0 0 0 0 0
 0 0 0 0 0 0 0 0 0 0
 0 0 0 0 0 0 0 0 0 0
 0 0 0 0 0 0 0 0 0 0
 0 0 0 0 0 0 0 0 0 0
 0 0 0 0 0 0 0 0 0 0
 0 0 0 0 0 0 0 0 0 0
 0 0 0 0 0 0 0 0 0 0
 0 0 0 0 0 0 0 0 0 0
 0 0 0 0 0 0 0 0 0 0
 0 0 0 0 0 0 0 0 0 0
 0 0 0 0 0 0 0 0 0 0
 0 0 0 0 0 0 0 0 0 0
 0 0 0 0 0 0 0 0 0 0
 0 0 0 0 0 0 0 0 0 0
 0 0 0 0 0 0 0 0 0 0
 0 0 0 0 0 0 0 0 0 0
 0 0 0 0 0 0 0 0 0 0
 0 0 0 0 0 0 0 0 0 0
 0 0 0 0 0 0 0 0 0 0
 0 0 0 0 0 0 0 0 0 0
 0 0 0 0 0 0 0 0 0 0
 0 0 0 0 0 0 0 0 0 0
 0 0 0 0 0 0 0 0 0 0
 0 0 0 0 0 0 0 0 0 0
 0 0 0 0 0 0 0 0 0 0
 0 0 0 0 0 0 0 0 0 0
 0 0 0 0 0 0 0 0 0 0
 0 0 0 0 0 0 0 0 0 0
 0 0 0 0 0 0 0 0 0 0
 0 0 0 0 0 0 0 0 0 0
 0 0 0 0 0 0 0 0 0 0
 0 0 0 0 0 0 0 0 0 0
 0 0 0 0 0 0 0 0 0 0
 0 0 0 0 0 0 0 0 0 0
 0 0 0 0 0 0 0 0 0 0
 0 0 0 0 0 0 0 0 0 0
 0 0 0 0 0 0 0 0 0 0
 0 0 0 0 0 0 0 0 0 0
 0 0 0 0 0 0 0 0 0 0
 0 0 0 0 0 0 0 0 0 0
 0 0 0 0 0 0 0 0 0 0
 0 0 0 0 0 0 0 0 0 0
 0 0 0 0 0 0 0 0 0 0
 0 0 0 0 0 0 0 0 0 0
 0 0 0 0 0 0 0 0 0 0
 0 0 0 0 0 0 0 0 0 0
 0 0 0 0 0 0 0 0 0 0
 0 0 0 0 0 0 0 0 0 0
 0 0 0 0 0 0 0 0 0 0
 0 0 0 0 0 0 0 0 0 0
 0 0 0 0 0 0 0 0 0 0
 0 0 0 0 0 0 0 0 0 0
 0 0 0 0 0 0 0 0 0 0
 0 0 0 0 0 0 0 0 0 0
 0 0 0 0 0 0 0 0 0 0
 0 0 0 0 0 0 0 0 0 0
 0 0 0 0 0 0 0 0 0 0
 0 0 0 0 0 0 0 0 0 0
 0 0 0 0 0 0 0 0 0 0
 0 0 0 0
        </DataArray>
      </PointData>
      <Points>
        <DataArray type="Float32" NumberOfComponents="3" format="ascii">
  0.000000  0.500000  0.000000
  0.000000  0.490000  0.000000
  0.000000  0.480000  0.000000
  0.000000  0.470000  0.000000
  0.000000  0.460000  0.000000
  0.000000  0.450000  0.000000
  0.000000  0.440000  0.000000
  0.000000  0.430000  0.000000
  0.000000  0.420000  0.000000
  0.000000  0.410000  0.000000
  0.000000  0.400000  0.000000
  0.000000  0.390000  0.000000
  0.000000  0.380000  0.000000
  0.000000  0.370000  0.000000
  0.000000  0.360000  0.000000
  0.000000  0.350000  0.000000
  0.000000  0.340000  0.000000
  0.000000  0.330000  0.000000
  0.000000  0.320000  0.000000
  0.000000  0.310000  0.000000
  0.000000  0.300000  0.000000
  0.000000  0.290000  0.000000
  0.000000  0.280000  0.000000
  0.000000  0.270000  0.000000
  0.000000  0.260000  0.000000
  0.000000  0.250000  0.000000
  0.000000  0.240000  0.000000
  0.000000  0.230000  0.000000
  0.000000  0.220000  0.000000
  0.000000  0.210000  0.000000
  0.000000  0.200000  0.000000
  0.000000  0.190000  0.000000
  0.000000  0.180000  0.000000
  0.000000  0.170000  0.000000
  0.000000  0.160000  0.000000
  0.000000  0.150000  0.000000
  0.000000  0.140000  0.000000
  0.000000  0.130000  0.000000
  0.000000  0.120000  0.000000
  0.000000  0.110000  0.000000
  0.000000  0.100000  0.000000
  0.000000  0.090000  0.000000
  0.000000  0.080000  0.000000
  0.000000  0.070000  0.000000
  0.000000  0.060000  0.000000
  0.000000  0.050000  0.000000
  0.000000  0.040000  0.000000
  0.000000  0.030000  0.000000
  0.000000  0.020000  0.000000
  0.000000  0.010000  0.000000
 -0.100000  0.000000  0.000000
 -0.090000  0.000000  0.000000
 -0.080000  0.000000  0.000000
 -0.070000  0.000000  0.000000
 -0.060000  0.000000  0.000000
 -0.050000  0.000000  0.000000
 -0.040000  0.000000  0.000000
 -0.030000  0.000000  0.000000
 -0.020000  0.000000  0.000000
 -0.010000  0.000000  0.000000
 -0.000000  0.000000  0.000000
  0.010000  0.000000  0.000000
  0.020000  0.000000  0.000000
  0.030000  0.000000  0.000000
  0.040000  0.000000  0.000000
  0.050000  0.000000  0.000000
  0.060000  0.000000  0.000000
  0.070000  0.000000  0.000000
  0.080000  0.000000  0.000000
  0.090000  0.000000  0.000000
  0.100000  0.000000  0.000000
  0.110000  0.000000  0.000000
  0.120000  0.000000  0.000000
  0.130000  0.000000  0.000000
  0.140000  0.000000  0.000000
  0.150000  0.000000  0.000000
  0.160000  0.000000  0.000000
  0.170000  0.000000  0.000000
  0.180000  0.000000  0.000000
  0.190000  0.000000  0.000000
  0.200000  0.000000  0.000000
  0.210000  0.000000  0.000000
  0.220000  0.000000  0.000000
  0.230000  0.000000  0.000000
  0.240000  0.000000  0.000000
  0.250000  0.000000  0.000000
  0.260000  0.000000  0.000000
  0.270000  0.000000  0.000000
  0.280000  0.000000  0.000000
  0.290000  0.000000  0.000000
  0.300000  0.000000  0.000000
  0.310000  0.000000  0.000000
  0.320000  0.000000  0.000000
  0.330000  0.000000  0.000000
  0.340000  0.000000  0.000000
  0.350000  0.000000  0.000000
  0.360000  0.000000  0.000000
  0.370000  0.000000  0.000000
  0.380000  0.000000  0.000000
  0.390000  0.000000  0.000000
  0.400000  0.000000  0.000000
  0.410000  0.000000  0.000000
  0.420000  0.000000  0.000000
  0.430000  0.000000  0.000000
  0.440000  0.000000  0.000000
  0.450000  0.000000  0.000000
  0.460000  0.000000  0.000000
  0.470000  0.000000  0.000000
  0.480000  0.000000  0.000000
  0.490000  0.000000  0.000000
  0.500000  0.000000  0.000000
  0.510000  0.000000  0.000000
  0.520000  0.000000  0.000000
  0.530000  0.000000  0.000000
  0.540000  0.000000  0.000000
  0.550000  0.000000  0.000000
  0.560000  0.000000  0.000000
  0.570000  0.000000  0.000000
  0.580000  0.000000  0.000000
  0.590000  0.000000  0.000000
  0.600000  0.000000  0.000000
  0.610000  0.000000  0.000000
  0.620000  0.000000  0.000000
  0.630000  0.000000  0.000000
  0.640000  0.000000  0.000000
  0.650000  0.000000  0.000000
  0.660000  0.000000  0.000000
  0.670000  0.000000  0.000000
  0.680000  0.000000  0.000000
  0.690000  0.000000  0.000000
  0.700000  0.000000  0.000000
  0.710000  0.000000  0.000000
  0.720000  0.000000  0.000000
  0.730000  0.000000  0.000000
  0.740000  0.000000  0.000000
  0.750000  0.000000  0.000000
  0.760000  0.000000  0.000000
  0.770000  0.000000  0.000000
  0.780000  0.000000  0.000000
  0.790000  0.000000  0.000000
  0.800000  0.000000  0.000000
  0.700000  0.010000  0.000000
  0.700000  0.020000  0.000000
  0.700000  0.030000  0.000000
  0.700000  0.040000  0.000000
  0.700000  0.050000  0.000000
  0.700000  0.060000  0.000000
  0.700000  0.070000  0.000000
  0.700000  0.080000  0.000000
  0.700000  0.090000  0.000000
  0.700000  0.100000  0.000000
  0.700000  0.110000  0.000000
  0.700000  0.120000  0.000000
  0.700000  0.130000  0.000000
  0.700000  0.140000  0.000000
  0.700000  0.150000  0.000000
  0.700000  0.160000  0.000000
  0.700000  0.170000  0.000000
  0.700000  0.180000  0.000000
  0.700000  0.190000  0.000000
  0.700000  0.200000  0.000000
  0.700000  0.210000  0.000000
  0.700000  0.220000  0.000000
  0.700000  0.230000  0.000000
  0.700000  0.240000  0.000000
  0.700000  0.250000  0.000000
  0.700000  0.260000  0.000000
  0.700000  0.270000  0.000000
  0.700000  0.280000  0.000000
  0.700000  0.290000  0.000000
  0.700000  0.300000  0.000000
  0.700000  0.310000  0.000000
  0.700000  0.320000  0.000000
  0.700000  0.330000  0.000000
  0.700000  0.340000  0.000000
  0.700000  0.350000  0.000000
  0.700000  0.360000  0.000000
  0.700000  0.370000  0.000000
  0.700000  0.380000  0.000000
  0.700000  0.390000  0.000000
  0.700000  0.400000  0.000000
  0.700000  0.410000  0.000000
  0.700000  0.420000  0.000000
  0.700000  0.430000  0.000000
  0.700000  0.440000  0.000000
  0.700000  0.450000  0.000000
  0.700000  0.460000  0.000000
  0.700000  0.470000  0.000000
  0.700000  0.480000  0.000000
  0.700000  0.490000  0.000000
  0.700000  0.500000  0.000000
  0.019797  0.010373  0.000000
  0.020559  0.020263  0.000000
  0.035563  0.014660  0.000000
  0.009774  0.010156  0.000000
  0.033987  0.022584  0.000000
  0.010758  0.019509  0.000000
  0.038332  0.030385  0.000000
  0.044944  0.018191  0.000000
  0.063965  0.025983  0.000000
  0.043603  0.034027  0.000000
  0.051432  0.037471  0.000000
  0.008595  0.030403  0.000000
  0.011804  0.041643  0.000000
  0.010768  0.046803  0.000000
  0.009635  0.058055  0.000000
  0.023349  0.053604  0.000000
  0.039248  0.059234  0.000000
  0.012725  0.062873  0.000000
  0.028019  0.078526  0.000000
  0.008797  0.074382  0.000000
  0.016847  0.074023  0.000000
  0.010773  0.085188  0.000000
  0.009168  0.094694  0.000000
  0.016526  0.104911  0.000000
  0.009543  0.105751  0.000000
  0.023071  0.111249  0.000000
  0.009823  0.119568  0.000000
  0.020588  0.122320  0.000000
  0.016642  0.120981  0.000000
  0.029908  0.121261  0.000000
  0.045493  0.008387  0.000000
  0.029485  0.009084  0.000000
  0.056931  0.009819  0.000000
  0.053519  0.020030  0.000000
  0.070509  0.009486  0.000000
  0.075757  0.020469  0.000000
  0.091493  0.014493  0.000000
  0.064804  0.013924  0.000000
  0.061540  0.040935  0.000000
  0.054422  0.027695  0.000000
  0.044036  0.049228  0.000000
  0.023797  0.028142  0.000000
  0.062712  0.044364  0.000000
  0.030785  0.037724  0.000000
  0.054374  0.058642  0.000000
  0.023416  0.045676  0.000000
  0.017966  0.031749  0.000000
  0.034704  0.056204  0.000000
  0.050429  0.060449  0.000000
  0.024522  0.062762  0.000000
  0.051476  0.074958  0.000000
  0.038339  0.072134  0.000000
  0.021716  0.083593  0.000000
  0.037261  0.084631  0.000000
  0.021277  0.092178  0.000000
  0.035840  0.100633  0.000000
  0.023491  0.097270  0.000000
  0.036006  0.101463  0.000000
  0.032704  0.112120  0.000000
  0.043117  0.116437  0.000000
  0.106385  0.011553  0.000000
  0.082897  0.008436  0.000000
  0.097079  0.009617  0.000000
  0.082390  0.019383  0.000000
  0.104715  0.022768  0.000000
  0.125269  0.013528  0.000000
  0.139450  0.021099  0.000000
  0.108687  0.037610  0.000000
  0.090004  0.045193  0.000000
  0.069194  0.029058  0.000000
  0.093081  0.033294  0.000000
  0.093173  0.025161  0.000000
  0.070514  0.051083  0.000000
  0.075057  0.068055  0.000000
  0.087563  0.059784  0.000000
  0.031619  0.043956  0.000000
  0.063550  0.060768  0.000000
  0.049670  0.047243  0.000000
  0.044284  0.073392  0.000000
  0.027307  0.068634  0.000000
  0.062422  0.069936  0.000000
  0.060974  0.081756  0.000000
  0.050854  0.085714  0.000000
  0.039656  0.086552  0.000000
  0.056945  0.094571  0.000000
  0.047421  0.097128  0.000000
  0.051075  0.103118  0.000000
  0.057414  0.110071  0.000000
  0.051849  0.114464  0.000000
  0.043321  0.121426  0.000000
  0.145093  0.009297  0.000000
  0.115088  0.009212  0.000000
  0.145083  0.015698  0.000000
  0.113161  0.019710  0.000000
  0.136361  0.038736  0.000000
  0.130456  0.008812  0.000000
  0.137166  0.032005  0.000000
  0.131139  0.020557  0.000000
  0.120007  0.041003  0.000000
  0.083120  0.030200  0.000000
  0.127071  0.040314  0.000000
  0.079837  0.040263  0.000000
  0.110217  0.045373  0.000000
  0.074694  0.037699  0.000000
  0.071996  0.056352  0.000000
  0.104617  0.029658  0.000000
  0.083400  0.050970  0.000000
  0.096243  0.054157  0.000000
  0.082819  0.063928  0.000000
  0.079491  0.077162  0.000000
  0.099280  0.072636  0.000000
  0.067060  0.075016  0.000000
  0.064062  0.089879  0.000000
  0.086297  0.079476  0.000000
  0.074720  0.089111  0.000000
  0.067784  0.101254  0.000000
  0.077343  0.104398  0.000000
  0.070072  0.106604  0.000000
  0.066831  0.119887  0.000000
  0.074304  0.116733  0.000000
  0.173788  0.008987  0.000000
  0.157708  0.008558  0.000000
  0.171626  0.014956  0.000000
  0.158944  0.015634  0.000000
  0.194693  0.010830  0.000000
  0.154981  0.024858  0.000000
  0.146465  0.030706  0.000000
  0.163108  0.023939  0.000000
  0.121191  0.025908  0.000000
  0.163331  0.035808  0.000000
  0.121497  0.030327  0.000000
  0.151980  0.035996  0.000000
  0.143101  0.046852  0.000000
  0.130367  0.052703  0.000000
  0.138807  0.065440  0.000000
  0.097658  0.041320  0.000000
  0.124927  0.052548  0.000000
  0.106997  0.050586  0.000000
  0.116236  0.074175  0.000000
  0.101572  0.059878  0.000000
  0.091958  0.072998  0.000000
  0.104065  0.068427  0.000000
  0.096437  0.086043  0.000000
  0.076965  0.088080  0.000000
  0.097530  0.089236  0.000000
  0.087229  0.098440  0.000000
  0.090004  0.095590  0.000000
  0.092544  0.110037  0.000000
  0.087285  0.109541  0.000000
  0.083910  0.120192  0.000000
  0.204159  0.011549  0.000000
  0.186612  0.009657  0.000000
  0.223952  0.021975  0.000000
  0.198841  0.021986  0.000000
  0.243890  0.012228  0.000000
  0.206028  0.030079  0.000000
  0.222018  0.010824  0.000000
  0.182073  0.018535  0.000000
  0.191203  0.023622  0.000000
  0.214003  0.030301  0.000000
  0.185910  0.031937  0.000000
  0.194943  0.034635  0.000000
  0.176787  0.025404  0.000000
  0.154109  0.045560  0.000000
  0.142615  0.051786  0.000000
  0.149296  0.058596  0.000000
  0.117488  0.060390  0.000000
  0.162352  0.057262  0.000000
  0.114438  0.062362  0.000000
  0.133605  0.062474  0.000000
  0.125689  0.069063  0.000000
  0.130173  0.076388  0.000000
  0.110029  0.081378  0.000000
  0.119685  0.081812  0.000000
  0.117281  0.094460  0.000000
  0.109872  0.088614  0.000000
  0.109021  0.100602  0.000000
  0.107437  0.103901  0.000000
  0.101394  0.109510  0.000000
  0.105981  0.116332  0.000000
  0.259401  0.010786  0.000000
  0.214827  0.013026  0.000000
  0.231744  0.011032  0.000000
  0.209323  0.018609  0.000000
  0.288321  0.025348  0.000000
  0.248958  0.012344  0.000000
  0.264268  0.015519  0.000000
  0.235467  0.018275  0.000000
  0.230505  0.025470  0.000000
  0.230110  0.033629  0.000000
  0.216795  0.034905  0.000000
  0.225963  0.043923  0.000000
  0.197230  0.040113  0.000000
  0.170862  0.031055  0.000000
  0.176872  0.040290  0.000000
  0.161806  0.045374  0.000000
  0.166899  0.053374  0.000000
  0.180235  0.055346  0.000000
  0.156874  0.065154  0.000000
  0.149187  0.069165  0.000000
  0.163217  0.071619  0.000000
  0.143327  0.077550  0.000000
  0.134911  0.081763  0.000000
  0.142078  0.089024  0.000000
  0.127825  0.090916  0.000000
  0.138207  0.094203  0.000000
  0.129620  0.103356  0.000000
  0.125013  0.099646  0.000000
  0.122938  0.114971  0.000000
  0.116431  0.115050  0.000000
  0.278761  0.016189  0.000000
  0.271310  0.011439  0.000000
  0.325225  0.024671  0.000000
  0.283375  0.010987  0.000000
  0.334545  0.025527  0.000000
  0.302877  0.011387  0.000000
  0.303771  0.028348  0.000000
  0.280243  0.026381  0.000000
  0.293505  0.011689  0.000000
  0.268804  0.026560  0.000000
  0.253905  0.023240  0.000000
  0.246689  0.025898  0.000000
  0.246546  0.031961  0.000000
  0.208243  0.045143  0.000000
  0.218128  0.054930  0.000000
  0.187374  0.045633  0.000000
  0.175852  0.044456  0.000000
  0.203102  0.049681  0.000000
  0.186574  0.056810  0.000000
  0.197322  0.053932  0.000000
  0.174045  0.069611  0.000000
  0.174647  0.062674  0.000000
  0.175714  0.076665  0.000000
  0.153754  0.078305  0.000000
  0.162629  0.081527  0.000000
  0.157714  0.089006  0.000000
  0.155019  0.092522  0.000000
  0.146152  0.100862  0.000000
  0.144883  0.112483  0.000000
  0.144722  0.106544  0.000000
  0.337897  0.010319  0.000000
  0.321554  0.012075  0.000000
  0.347313  0.012541  0.000000
  0.325715  0.012875  0.000000
  0.360217  0.017466  0.000000
  0.337868  0.017288  0.000000
  0.350927  0.029767  0.000000
  0.309997  0.019556  0.000000
  0.311075  0.011401  0.000000
  0.309129  0.031928  0.000000
  0.275463  0.036904  0.000000
  0.278839  0.039441  0.000000
  0.263701  0.048956  0.000000
  0.261974  0.029561  0.000000
  0.252586  0.039691  0.000000
  0.216997  0.045382  0.000000
  0.235576  0.038921  0.000000
  0.231730  0.051741  0.000000
  0.233500  0.059756  0.000000
  0.215218  0.061091  0.000000
  0.204391  0.064633  0.000000
  0.194183  0.062962  0.000000
  0.193804  0.072206  0.000000
  0.186495  0.072391  0.000000
  0.190062  0.081060  0.000000
  0.176886  0.084647  0.000000
  0.173741  0.091893  0.000000
  0.166316  0.098848  0.000000
  0.165712  0.103068  0.000000
  0.158523  0.105219  0.000000
  0.410352  0.011511  0.000000
  0.355991  0.010642  0.000000
  0.417597  0.014023  0.000000
  0.383390  0.015350  0.000000
  0.429060  0.027818  0.000000
  0.389421  0.010805  0.000000
  0.419029  0.021991  0.000000
  0.367126  0.031640  0.000000
  0.338830  0.034345  0.000000
  0.317628  0.027591  0.000000
  0.323437  0.035375  0.000000
  0.312825  0.043606  0.000000
  0.265795  0.036503  0.000000
  0.294445  0.019456  0.000000
  0.295533  0.032781  0.000000
  0.290493  0.038898  0.000000
  0.259876  0.054141  0.000000
  0.250712  0.043618  0.000000
  0.251096  0.059992  0.000000
  0.240028  0.046275  0.000000
  0.245119  0.054821  0.000000
  0.223409  0.063912  0.000000
  0.234019  0.067328  0.000000
  0.208645  0.071116  0.000000
  0.214360  0.082727  0.000000
  0.203990  0.082030  0.000000
  0.199445  0.086647  0.000000
  0.191364  0.090460  0.000000
  0.181364  0.093139  0.000000
  0.182695  0.103532  0.000000
  0.447702  0.014258  0.000000
  0.411223  0.025899  0.000000
  0.486031  0.011931  0.000000
  0.434438  0.010518  0.000000
  0.472320  0.012709  0.000000
  0.425843  0.011525  0.000000
  0.450639  0.010348  0.000000
  0.435898  0.017117  0.000000
  0.402044  0.029532  0.000000
  0.379018  0.023007  0.000000
  0.397954  0.013318  0.000000
  0.350677  0.022418  0.000000
  0.354784  0.033049  0.000000
  0.357302  0.049485  0.000000
  0.346565  0.045082  0.000000
  0.312261  0.044847  0.000000
  0.297855  0.043526  0.000000
  0.289355  0.049069  0.000000
  0.288344  0.055567  0.000000
  0.276987  0.053911  0.000000
  0.273080  0.066435  0.000000
  0.259955  0.064914  0.000000
  0.244849  0.066596  0.000000
  0.246284  0.080523  0.000000
  0.214998  0.074028  0.000000
  0.229010  0.075197  0.000000
  0.221945  0.091689  0.000000
  0.204350  0.098042  0.000000
  0.206535  0.102298  0.000000
  0.193421  0.100155  0.000000
  0.544819  0.011252  0.000000
  0.505775  0.011549  0.000000
  0.546320  0.016676  0.000000
  0.522381  0.014748  0.000000
  0.532016  0.012491  0.000000
  0.503099  0.012148  0.000000
  0.488532  0.012288  0.000000
  0.458613  0.017635  0.000000
  0.466091  0.009893  0.000000
  0.447415  0.028717  0.000000
  0.435552  0.033800  0.000000
  0.400851  0.014089  0.000000
  0.394527  0.027756  0.000000
  0.382031  0.034387  0.000000
  0.369864  0.023546  0.000000
  0.359293  0.041905  0.000000
  0.344320  0.051598  0.000000
  0.335588  0.036171  0.000000
  0.339321  0.055218  0.000000
  0.324259  0.050251  0.000000
  0.302663  0.052565  0.000000
  0.312592  0.058034  0.000000
  0.270607  0.051150  0.000000
  0.281940  0.062112  0.000000
  0.265356  0.069090  0.000000
  0.249145  0.074222  0.000000
  0.237969  0.092531  0.000000
  0.238355  0.079273  0.000000
  0.224570  0.086777  0.000000
  0.214282  0.094962  0.000000
  0.638262  0.011750  0.000000
  0.599428  0.023436  0.000000
  0.601338  0.009879  0.000000
  0.579423  0.011787  0.000000
  0.592827  0.014486  0.000000
  0.556434  0.010155  0.000000
  0.528139  0.025568  0.000000
  0.536546  0.020538  0.000000
  0.518130  0.011209  0.000000
  0.490914  0.022731  0.000000
  0.471539  0.019906  0.000000
  0.455196  0.026065  0.000000
  0.440115  0.025442  0.000000
  0.452503  0.042166  0.000000
  0.403718  0.036162  0.000000
  0.408288  0.045726  0.000000
  0.388686  0.030159  0.000000
  0.375664  0.010530  0.000000
  0.367948  0.013565  0.000000
  0.395804  0.045511  0.000000
  0.368139  0.040408  0.000000
  0.350412  0.064003  0.000000
  0.330240  0.045976  0.000000
  0.300858  0.059533  0.000000
  0.295708  0.066808  0.000000
  0.279497  0.071791  0.000000
  0.266493  0.079936  0.000000
  0.258626  0.080643  0.000000
  0.250971  0.094445  0.000000
  0.237668  0.094160  0.000000
  0.665233  0.020052  0.000000
  0.636011  0.022259  0.000000
  0.645344  0.011200  0.000000
  0.628121  0.011479  0.000000
  0.642933  0.052551  0.000000
  0.608358  0.012433  0.000000
  0.582676  0.024962  0.000000
  0.593258  0.030206  0.000000
  0.550908  0.025382  0.000000
  0.584766  0.030578  0.000000
  0.565828  0.025273  0.000000
  0.521495  0.026722  0.000000
  0.499534  0.023729  0.000000
  0.517253  0.043762  0.000000
  0.483642  0.024335  0.000000
  0.467626  0.026509  0.000000
  0.472072  0.048510  0.000000
  0.430318  0.042284  0.000000
  0.436562  0.044128  0.000000
  0.415587  0.033446  0.000000
  0.391036  0.046229  0.000000
  0.376408  0.037213  0.000000
  0.376372  0.054339  0.000000
  0.339569  0.067044  0.000000
  0.331094  0.060606  0.000000
  0.315898  0.070378  0.000000
  0.294067  0.071480  0.000000
  0.285372  0.083371  0.000000
  0.269301  0.088049  0.000000
  0.260467  0.088811  0.000000
  0.678022  0.016349  0.000000
  0.682909  0.047823  0.000000
  0.676056  0.033508  0.000000
  0.674501  0.027859  0.000000
  0.664260  0.045537  0.000000
  0.652916  0.012582  0.000000
  0.621317  0.011359  0.000000
  0.633389  0.042357  0.000000
  0.600441  0.033163  0.000000
  0.613029  0.019746  0.000000
  0.608974  0.035817  0.000000
  0.572129  0.009790  0.000000
  0.588693  0.013579  0.000000
  0.572208  0.022092  0.000000
  0.511338  0.021877  0.000000
  0.534339  0.038010  0.000000
  0.513970  0.032000  0.000000
  0.483272  0.032853  0.000000
  0.483032  0.042807  0.000000
  0.462139  0.033044  0.000000
  0.450646  0.039502  0.000000
  0.420140  0.038867  0.000000
  0.404557  0.061070  0.000000
  0.387422  0.049591  0.000000
  0.359315  0.056336  0.000000
  0.361182  0.063661  0.000000
  0.323215  0.057271  0.000000
  0.311288  0.065812  0.000000
  0.296986  0.082307  0.000000
  0.280377  0.079960  0.000000
  0.686863  0.028378  0.000000
  0.685236  0.010555  0.000000
  0.688767  0.062080  0.000000
  0.686220  0.109883  0.000000
  0.672986  0.011035  0.000000
  0.663379  0.011766  0.000000
  0.672192  0.053313  0.000000
  0.664942  0.060664  0.000000
  0.650700  0.021345  0.000000
  0.659373  0.025748  0.000000
  0.657599  0.043580  0.000000
  0.642444  0.030993  0.000000
  0.625633  0.032476  0.000000
  0.646114  0.039353  0.000000
  0.613930  0.042357  0.000000
  0.581549  0.043353  0.000000
  0.569319  0.039991  0.000000
  0.562955  0.015458  0.000000
  0.541966  0.031279  0.000000
  0.515812  0.048414  0.000000
  0.507585  0.031663  0.000000
  0.475274  0.035511  0.000000
  0.447792  0.051408  0.000000
  0.447687  0.065404  0.000000
  0.418259  0.048332  0.000000
  0.392190  0.060846  0.000000
  0.372412  0.052724  0.000000
  0.348836  0.077939  0.000000
  0.332761  0.072510  0.000000
  0.300909  0.078339  0.000000
  0.682989  0.100901  0.000000
  0.669364  0.153763  0.000000
  0.690941  0.043368  0.000000
  0.688912  0.070398  0.000000
  0.637001  0.186360  0.000000
  0.681872  0.064083  0.000000
  0.686299  0.087026  0.000000
  0.674182  0.102812  0.000000
  0.686600  0.145377  0.000000
  0.676565  0.080892  0.000000
  0.663728  0.033038  0.000000
  0.672017  0.041451  0.000000
  0.661028  0.062250  0.000000
  0.649851  0.062397  0.000000
  0.650655  0.033551  0.000000
  0.654799  0.052480  0.000000
  0.620859  0.039587  0.000000
  0.611921  0.026949  0.000000
  0.592226  0.043004  0.000000
  0.568177  0.033118  0.000000
  0.538188  0.046683  0.000000
  0.527339  0.039576  0.000000
  0.498978  0.036449  0.000000
  0.496860  0.056090  0.000000
  0.445073  0.053237  0.000000
  0.430877  0.057888  0.000000
  0.411479  0.053493  0.000000
  0.388589  0.065912  0.000000
  0.353715  0.069679  0.000000
  0.326737  0.075064  0.000000
  0.688023  0.079801  0.000000
  0.636907  0.244596  0.000000
  0.687153  0.136135  0.000000
  0.684543  0.049855  0.000000
  0.688746  0.124549  0.000000
  0.688302  0.029344  0.000000
  0.689532  0.015471  0.000000
  0.689989  0.110765  0.000000
  0.666494  0.128822  0.000000
  0.681328  0.160435  0.000000
  0.669438  0.133432  0.000000
  0.673659  0.073877  0.000000
  0.667307  0.108884  0.000000
  0.669105  0.120704  0.000000
  0.672681  0.066174  0.000000
  0.663689  0.081887  0.000000
  0.658569  0.076635  0.000000
  0.649040  0.073308  0.000000
  0.633235  0.027261  0.000000
  0.624187  0.048733  0.000000
  0.605611  0.053803  0.000000
  0.598639  0.054764  0.000000
  0.551311  0.046999  0.000000
  0.553092  0.029186  0.000000
  0.508785  0.049602  0.000000
  0.492521  0.039156  0.000000
  0.461420  0.055439  0.000000
  0.429398  0.053233  0.000000
  0.383534  0.063554  0.000000
  0.371184  0.066965  0.000000
  0.631582  0.236335  0.000000
  0.677308  0.202150  0.000000
  0.689323  0.094983  0.000000
  0.608026  0.335993  0.000000
  0.676982  0.293835  0.000000
  0.620378  0.258095  0.000000
  0.668241  0.295512  0.000000
  0.672440  0.163095  0.000000
  0.672788  0.208913  0.000000
  0.665414  0.242037  0.000000
  0.663772  0.183970  0.000000
  0.682704  0.164190  0.000000
  0.686538  0.183288  0.000000
  0.652819  0.159981  0.000000
  0.666606  0.086439  0.000000
  0.682347  0.141138  0.000000
  0.676564  0.091765  0.000000
  0.669524  0.143339  0.000000
  0.653321  0.096172  0.000000
  0.648441  0.091652  0.000000
  0.633268  0.061886  0.000000
  0.622339  0.021014  0.000000
  0.642409  0.050042  0.000000
  0.560218  0.050644  0.000000
  0.563838  0.041910  0.000000
  0.545612  0.040485  0.000000
  0.500133  0.044877  0.000000
  0.466476  0.042458  0.000000
  0.420246  0.065658  0.000000
  0.412912  0.061802  0.000000
  0.564140  0.374799  0.000000
  0.646342  0.221433  0.000000
  0.543263  0.346079  0.000000
  0.526280  0.394856  0.000000
  0.603516  0.370985  0.000000
  0.648285  0.261217  0.000000
  0.672147  0.280121  0.000000
  0.678705  0.331341  0.000000
  0.674616  0.256062  0.000000
  0.658072  0.354021  0.000000
  0.638050  0.238296  0.000000
  0.664698  0.228803  0.000000
  0.681027  0.236400  0.000000
  0.681348  0.208089  0.000000
  0.658727  0.171131  0.000000
  0.686256  0.185820  0.000000
  0.655190  0.131475  0.000000
  0.653594  0.116414  0.000000
  0.665769  0.112784  0.000000
  0.665148  0.099143  0.000000
  0.650193  0.083171  0.000000
  0.645675  0.069597  0.000000
  0.628332  0.052997  0.000000
  0.603420  0.048128  0.000000
  0.579301  0.046071  0.000000
  0.529147  0.052863  0.000000
  0.483593  0.056721  0.000000
  0.484969  0.051961  0.000000
  0.437649  0.063305  0.000000
 -0.010000  0.500000  0.000000
 -0.010000  0.490000  0.000000
 -0.010000  0.480000  0.000000
 -0.010000  0.470000  0.000000
 -0.010000  0.460000  0.000000
 -0.010000  0.450000  0.000000
 -0.010000  0.440000  0.000000
 -0.010000  0.430000  0.000000
 -0.010000  0.420000  0.000000
 -0.010000  0.410000  0.000000
 -0.010000  0.400000  0.000000
 -0.010000  0.390000  0.000000
 -0.010000  0.380000  0.000000
 -0.010000  0.370000  0.000000
 -0.010000  0.360000  0.000000
 -0.010000  0.350000  0.000000
 -0.010000  0.340000  0.000000
 -0.010000  0.330000  0.000000
 -0.010000  0.320000  0.000000
 -0.010000  0.310000  0.000000
 -0.010000  0.300000  0.000000
 -0.010000  0.290000  0.000000
 -0.010000  0.280000  0.000000
 -0.010000  0.270000  0.000000
 -0.010000  0.260000  0.000000
 -0.010000  0.250000  0.000000
 -0.010000  0.240000  0.000000
 -0.010000  0.230000  0.000000
 -0.010000  0.220000  0.000000
 -0.010000  0.210000  0.000000
 -0.010000  0.200000  0.000000
 -0.010000  0.190000  0.000000
 -0.010000  0.180000  0.000000
 -0.010000  0.170000  0.000000
 -0.010000  0.160000  0.000000
 -0.010000  0.150000  0.000000
 -0.010000  0.140000  0.000000
 -0.010000  0.130000  0.000000
 -0.010000  0.120000  0.000000
 -0.010000  0.110000  0.000000
 -0.010000  0.100000  0.000000
 -0.010000  0.090000  0.000000
 -0.010000  0.080000  0.000000
 -0.010000  0.070000  0.000000
 -0.010000  0.060000  0.000000
 -0.010000  0.050000  0.000000
 -0.010000  0.040000  0.000000
 -0.010000  0.030000  0.000000
 -0.010000  0.020000  0.000000
 -0.010000  0.010000  0.000000
 -0.100000 -0.010000  0.000000
 -0.090000 -0.010000  0.000000
 -0.080000 -0.010000  0.000000
 -0.070000 -0.010000  0.000000
 -0.060000 -0.010000  0.000000
 -0.050000 -0.010000  0.000000
 -0.040000 -0.010000  0.000000
 -0.030000 -0.010000  0.000000
 -0.020000 -0.010000  0.000000