<?xml version="1.0" encoding="UTF-8"?>
<VTKFile type="UnstructuredGrid" version="1.0" byte_order="LittleEndian">
<UnstructuredGrid>
  <Piece NumberOfPoints="1555" NumberOfCells="1555">
      <PointData>
        <DataArray type="Int32" Name="Type" format="ascii">
 1 1 1 1 1 1 1 1 1 1
 1 1 1 1 1 1 1 1 1 1
 1 1 1 1 1 1 1 1 1 1
 1 1 1 1 1 1 1 1 1 1
 1 1 1 1 1 1 1 1 1 1
 1 1 1 1 1 1 1 1 1 1
 1 3 3 3 3 3 3 3 3 3
 3 3 3 3 3 3 3 3 3 3
 3 3 3 3 3 3 3 3 3 3
 3 3 3 3 3 3 3 3 3 3
 3 3 3 3 3 3 3 3 3 3
 3 3 3 3 3 3 3 3 3 3
 3 3 3 3 3 3 3 3 3 3
 1 1 1 1 1 1 1 1 1 1
 1 1 1 1 1 1 1 1 1 1
 1 1 1 1 1 1 1 1 1 1
 1 1 1 1 1 1 1 1 1 1
 1 1 1 1 1 1 1 1 1 1
 1 1 1 1 1 1 1 1 1 1
 1 2 2 2 2 2 2 2 2 2
 2 2 2 2 2 2 2 2 2 2
 2 2 2 2 2 2 2 2 2 2
 2 2 2 2 2 2 2 2 2 2
 2 2 2 2 2 2 2 2 2 2
 2 2 2 2 2 2 2 2 2 2
 2 2 2 2 2 2 2 2 2 2
 2 2 2 2 2 2 2 2 2 2
 2 2 2 2 2 2 2 2 2 2
 2 2 2 2 2 2 2 2 2 2
 2 2 2 2 2 2 2 2 2 2
 2 2 2 2 2 2 2 2 2 2
 2 2 2 2 2 2 2 2 2 2
 2 2 2 2 2 2 2 2 2 2
 2 2 2 2 2 2 2 2 2 2
 2 2 2 2 2 2 2 2 2 2
 2 2 2 2 2 2 2 2 2 2
 2 2 2 2 2 2 2 2 2 2
 2 2 2 2 2 2 2 2 2 2
 2 2 2 2 2 2 2 2 2 2
 2 2 2 2 2 2 2 2 2 2
 2 2 2 2 2 2 2 2 2 2
 2 2 2 2 2 2 2 2 2 2
 2 2 2 2 2 2 2 2 2 2
 2 2 2 2 2 2 2 2 2 2
 2 2 2 2 2 2 2 2 2 2
 2 2 2 2 2 2 2 2 2 2
 2 2 2 2 2 2 2 2 2 2
 2 2 2 2 2 2 2 2 2 2
 2 2 2 2 2 2 2 2 2 2
 2 2 2 2 2 2 2 2 2 2
 2 2 2 2 2 2 2 2 2 2
 2 2 2 2 2 2 2 2 2 2
 2 2 2 2 2 2 2 2 2 2
 2 2 2 2 2 2 2 2 2 2
 2 2 2 2 2 2 2 2 2 2
 2 2 2 2 2 2 2 2 2 2
 2 2 2 2 2 2 2 2 2 2
 2 2 2 2 2 2 2 2 2 2
 2 2 2 2 2 2 2 2 2 2
 2 2 2 2 2 2 2 2 2 2
 2 2 2 2 2 2 2 2 2 2
 2 2 2 2 2 2 2 2 2 2
 2 2 2 2 2 2 2 2 2 2
 2 2 2 2 2 2 2 2 2 2
 2 2 2 2 2 2 2 2 2 2
 2 2 2 2 2 2 2 2 2 2
 2 2 2 2 2 2 2 2 2 2
 2 2 2 2 2 2 2 2 2 2
 2 2 2 2 2 2 2 2 2 2
 2 2 2 2 2 2 2 2 2 2
 2 2 2 2 2 2 2 2 2 2
 2 2 2 2 2 2 2 2 2 2
 2 2 2 2 2 2 2 2 2 2
 2 2 2 2 2 2 2 2 2 2
 2 2 2 2 2 2 2 2 2 2
 2 2 2 2 2 2 2 2 2 2
 2 2 2 2 2 2 2 2 2 2
 2 2 2 2 2 2 2 2 2 2
 2 2 2 2 2 2 2 2 2 2
 2 0 0 0 0 0 0 0 0 0
 0 0 0 0 0 0 0 0 0 0
 0 0 0 0 0 0 0 0 0 0
 0 0 0 0 0 0 0 0 0 0
 0 0 0 0 0 0 0 0 0 0
 0 0 0 0 0 0 0 0 0 0
 0 0 0 0 0 0 0 0 0 0
 0 0 0 0 0 0 0 0 0 0
 0 0 0 0 0 0 0 0 0 0
 0 0 0 0 0 0 0 0 0 0
 0 0 0 0 0 0 0 0 0 0
 0 0 0 0 0 0 0 0 0 0
 0 0 0 0 0 0 0 0 0 0
 0 0 0 0 0 0 0 0 0 0
 0 0 0 0 0 0 0 0 0 0
 0 0 0 0 0 0 0 0 0 0
 0 0 0 0 0 0 0 0 0 0
 0 0 0 0 0 0 0 0 0 0
 0 0 0 0 0 0 0 0 0 0
 0 0 0 0 0 0 0 0 0 0
 0 0 0 0 0 0 0 0 0 0
 0 0 0 0 0 0 0 0 0 0
 0 0 0 0 0 0 0 0 0 0
 0 0 0 0 0 0 0 0 0 0
 0 0 0 0 0 0 0 0 0 0
 0 0 0 0 0 0 0 0 0 0
 0 0 0 0 0 0 0 0 0 0
 0 0 0 0 0 0 0 0 0 0
 0 0 0 0 0 0 0 0 0 0
 0 0 0 0 0 0 0 0 0 0
 0 0 0 0 0 0 0 0 0 0
 0 0 0 0 0 0 0 0 0 0
 0 0 0 0 0 0 0 0 0 0
 0 0 0 0 0 0 0 0 0 0
 0 0 0 0 0 0 0 0 0 0
 0 0 0 0 0 0 0 0 0 0
 0 0 0 0 0 0 0 0 0 0
 0 0 0 0 0 0 0 0 0 0
 0 0 0 0 0 0 0 0 0 0
 0 0 0 0 0 0 0 0 0 0
 0 0 0 0 0 0 0 0 0 0
 0 0 0 0 0 0 0 0 0 0
 0 0 0 0 0 0 0 0 0 0
 0 0 0 0 0 0 0 0 0 0
 0 0 0 0 0 0 0 0 0 0
 0 0 0 0 0 0 0 0 0 0
 0 0 0 0 0 0 0 0 0 0
 0 0 0 0 0 0 0 0 0 0
 0 0 0 0 0 0 0 0 0 0
 0 0 0 0 0 0 0 0 0 0
 0 0 0 0 0 0 0 0 0 0
 0 0 0 0 0 0 0 0 0 0
 0 0 0 0 0 0 0 0 0 0
 0 0 0 0 0 0 0 0 0 0
 0 0 0 0 0 0 0 0 0 0
 0 0 0 0 0 0 0 0 0 0
 0 0 0 0 0 0 0 0 0 0
 0 0 0 0 0 0 0 0 0 0
 0 0 0 0 0 0 0 0 0 0
 0 0 0 0 0 0 0 0 0 0
 0 0 0 0 0 0 0 0 0 0
 0 0 0 0 0 0 0 0 0 0
 0 0 0 0 0 0 0 0 0 0
 0 0 0 0 0 0 0 0 0 0
 0 0 0 0 0 0 0 0 0 0
 0 0 0 0 0 0 0 0 0 0
 0 0 0 0 0 0 0 0 0 0
 0 0 0 0 0 0 0 0 0 0
 0 0 0 0 0 0 0 0 0 0
 0 0 0 0 0 0 0 0 0 0
 0 0 0 0 0 0 0 0 0 0
 0 0 0 0 0 0 0 0 0 0
 0 0 0 0 0 0 0 0 0 0
 0 0 0 0 0 0 0 0 0 0
 0 0 0 0 0 0 0 0 0 0
 0 0 0 0 0 0 0 0 0 0
 0 0 0 0 0
        </DataArray>
      </PointData>
      <Points>
        <DataArray type="Float32" NumberOfComponents="3" format="ascii">
  0.000000  0.500000  0.000000
  0.000000  0.490000  0.000000
  0.000000  0.480000  0.000000
  0.000000  0.470000  0.000000
  0.000000  0.460000  0.000000
  0.000000  0.450000  0.000000
  0.000000  0.440000  0.000000
  0.000000  0.430000  0.000000
  0.000000  0.420000  0.000000
  0.000000  0.410000  0.000000
  0.000000  0.400000  0.000000
  0.000000  0.390000  0.000000
  0.000000  0.380000  0.000000
  0.000000  0.370000  0.000000
  0.000000  0.360000  0.000000
  0.000000  0.350000  0.000000
  0.000000  0.340000  0.000000
  0.000000  0.330000  0.000000
  0.000000  0.320000  0.000000
  0.000000  0.310000  0.000000
  0.000000  0.300000  0.000000
  0.000000  0.290000  0.000000
  0.000000  0.280000  0.000000
  0.000000  0.270000  0.000000
  0.000000  0.260000  0.000000
  0.000000  0.250000  0.000000
  0.000000  0.240000  0.000000
  0.000000  0.230000  0.000000
  0.000000  0.220000  0.000000
  0.000000  0.210000  0.000000
  0.000000  0.200000  0.000000
  0.000000  0.190000  0.000000
  0.000000  0.180000  0.000000
  0.000000  0.170000  0.000000
  0.000000  0.160000  0.000000
  0.000000  0.150000  0.000000
  0.000000  0.140000  0.000000
  0.000000  0.130000  0.000000
  0.000000  0.120000  0.000000
  0.000000  0.110000  0.000000
  0.000000  0.100000  0.000000
  0.000000  0.090000  0.000000
  0.000000  0.080000  0.000000
  0.000000  0.070000  0.000000
  0.000000  0.060000  0.000000
  0.000000  0.050000  0.000000
  0.000000  0.040000  0.000000
  0.000000  0.030000  0.000000
  0.000000  0.020000  0.000000
  0.000000  0.010000  0.000000
 -0.100000  0.000000  0.000000
 -0.090000  0.000000  0.000000
 -0.080000  0.000000  0.000000
 -0.070000  0.000000  0.000000
 -0.060000  0.000000  0.000000
 -0.050000  0.000000  0.000000
 -0.040000  0.000000  0.000000
 -0.030000  0.000000  0.000000
 -0.020000  0.000000  0.000000
 -0.010000  0.000000  0.000000
 -0.000000  0.000000  0.000000
  0.010000  0.000000  0.000000
  0.020000  0.000000  0.000000
  0.030000  0.000000  0.000000
  0.040000  0.000000  0.000000
  0.050000  0.000000  0.000000
  0.060000  0.000000  0.000000
  0.070000  0.000000  0.000000
  0.080000  0.000000  0.000000
  0.090000  0.000000  0.000000
  0.100000  0.000000  0.000000
  0.110000  0.000000  0.000000
  0.120000  0.000000  0.000000
  0.130000  0.000000  0.000000
  0.140000  0.000000  0.000000
  0.150000  0.000000  0.000000
  0.160000  0.000000  0.000000
  0.170000  0.000000  0.000000
  0.180000  0.000000  0.000000
  0.190000  0.000000  0.000000
  0.200000  0.000000  0.000000
  0.210000  0.000000  0.000000
  0.220000  0.000000  0.000000
  0.230000  0.000000  0.000000
  0.240000  0.000000  0.000000
  0.250000  0.000000  0.000000
  0.260000  0.000000  0.000000
  0.270000  0.000000  0.000000
  0.280000  0.000000  0.000000
  0.290000  0.000000  0.000000
  0.300000  0.000000  0.000000
  0.310000  0.000000  0.000000
  0.320000  0.000000  0.000000
  0.330000  0.000000  0.000000
  0.340000  0.000000  0.000000
  0.350000  0.000000  0.000000
  0.360000  0.000000  0.000000
  0.370000  0.000000  0.000000
  0.380000  0.000000  0.000000
  0.390000  0.000000  0.000000
  0.400000  0.000000  0.000000
  0.410000  0.000000  0.000000
  0.420000  0.000000  0.000000
  0.430000  0.000000  0.000000
  0.440000  0.000000  0.000000
  0.450000  0.000000  0.000000
  0.460000  0.000000  0.000000
  0.470000  0.000000  0.000000
  0.480000  0.000000  0.000000
  0.490000  0.000000  0.000000
  0.500000  0.000000  0.000000
  0.510000  0.000000  0.000000
  0.520000  0.000000  0.000000
  0.530000  0.000000  0.000000
  0.540000  0.000000  0.000000
  0.550000  0.000000  0.000000
  0.560000  0.000000  0.000000
  0.570000  0.000000  0.000000
  0.580000  0.000000  0.000000
  0.590000  0.000000  0.000000
  0.600000  0.000000  0.000000
  0.610000  0.000000  0.000000
  0.620000  0.000000  0.000000
  0.630000  0.000000  0.000000
  0.640000  0.000000  0.000000
  0.650000  0.000000  0.000000
  0.660000  0.000000  0.000000
  0.670000  0.000000  0.000000
  0.680000  0.000000  0.000000
  0.690000  0.000000  0.000000
  0.700000  0.000000  0.000000
  0.710000  0.000000  0.000000
  0.720000  0.000000  0.000000
  0.730000  0.000000  0.000000
  0.740000  0.000000  0.000000
  0.750000  0.000000  0.000000
  0.760000  0.000000  0.000000
  0.770000  0.000000  0.000000
  0.780000  0.000000  0.000000
  0.790000  0.000000  0.000000
  0.800000  0.000000  0.000000
  0.700000  0.010000  0.000000
  0.700000  0.020000  0.000000
  0.700000  0.030000  0.000000
  0.700000  0.040000  0.000000
  0.700000  0.050000  0.000000
  0.700000  0.060000  0.000000
  0.700000  0.070000  0.000000
  0.700000  0.080000  0.000000
  0.700000  0.090000  0.000000
  0.700000  0.100000  0.000000
  0.700000  0.110000  0.000000
  0.700000  0.120000  0.000000
  0.700000  0.130000  0.000000
  0.700000  0.140000  0.000000
  0.700000  0.150000  0.000000
  0.700000  0.160000  0.000000
  0.700000  0.170000  0.000000
  0.700000  0.180000  0.000000
  0.700000  0.190000  0.000000
  0.700000  0.200000  0.000000
  0.700000  0.210000  0.000000
  0.700000  0.220000  0.000000
  0.700000  0.230000  0.000000
  0.700000  0.240000  0.000000
  0.700000  0.250000  0.000000
  0.700000  0.260000  0.000000
  0.700000  0.270000  0.000000
  0.700000  0.280000  0.000000
  0.700000  0.290000  0.000000
  0.700000  0.300000  0.000000
  0.700000  0.310000  0.000000
  0.700000  0.320000  0.000000
  0.700000  0.330000  0.000000
  0.700000  0.340000  0.000000
  0.700000  0.350000  0.000000
  0.700000  0.360000  0.000000
  0.700000  0.370000  0.000000
  0.700000  0.380000  0.000000
  0.700000  0.390000  0.000000
  0.700000  0.400000  0.000000
  0.700000  0.410000  0.000000
  0.700000  0.420000  0.000000
  0.700000  0.430000  0.000000
  0.700000  0.440000  0.000000
  0.700000  0.450000  0.000000
  0.700000  0.460000  0.000000
  0.700000  0.470000  0.000000
  0.700000  0.480000  0.000000
  0.700000  0.490000  0.000000
  0.700000  0.500000  0.000000
  0.009529  0.010356  0.000000
  0.012657  0.019751  0.000000
  0.026764  0.014717  0.000000
  0.010791  0.025566  0.000000
  0.023178  0.026483  0.000000
  0.010552  0.035240  0.000000
  0.023095  0.036346  0.000000
  0.011587  0.042144  0.000000
  0.021488  0.048876  0.000000
  0.008737  0.051348  0.000000
  0.015079  0.059645  0.000000
  0.010801  0.065042  0.000000
  0.010966  0.073273  0.000000
  0.012171  0.080361  0.000000
  0.011313  0.087769  0.000000
  0.010705  0.095485  0.000000
  0.011737  0.103085  0.000000
  0.010898  0.110787  0.000000
  0.011311  0.118630  0.000000
  0.010997  0.126520  0.000000
  0.011102  0.134298  0.000000
  0.011200  0.141917  0.000000
  0.010819  0.150240  0.000000
  0.011495  0.157557  0.000000
  0.010269  0.165740  0.000000
  0.011975  0.173731  0.000000
  0.009666  0.181400  0.000000
  0.012785  0.189772  0.000000
  0.009362  0.197635  0.000000
  0.013954  0.205283  0.000000
  0.033051  0.009678  0.000000
  0.019090  0.009309  0.000000
  0.041476  0.016820  0.000000
  0.029457  0.023611  0.000000
  0.040335  0.029384  0.000000
  0.032914  0.035076  0.000000
  0.042940  0.042510  0.000000
  0.028309  0.043297  0.000000
  0.036885  0.052785  0.000000
  0.024088  0.056232  0.000000
  0.032333  0.064614  0.000000
  0.025749  0.067527  0.000000
  0.028373  0.075423  0.000000
  0.024346  0.080715  0.000000
  0.027385  0.087989  0.000000
  0.025968  0.093559  0.000000
  0.025057  0.101313  0.000000
  0.025145  0.107489  0.000000
  0.025284  0.114820  0.000000
  0.025055  0.121365  0.000000
  0.024947  0.128630  0.000000
  0.025084  0.135540  0.000000
  0.025014  0.142550  0.000000
  0.024865  0.149924  0.000000
  0.024659  0.157517  0.000000
  0.024484  0.165237  0.000000
  0.023809  0.173943  0.000000
  0.023443  0.182504  0.000000
  0.022760  0.191972  0.000000
  0.022260  0.202828  0.000000
  0.057944  0.009515  0.000000
  0.044388  0.009163  0.000000
  0.054586  0.017355  0.000000
  0.045789  0.023896  0.000000
  0.058697  0.027195  0.000000
  0.051577  0.034121  0.000000
  0.065220  0.037447  0.000000
  0.048873  0.041262  0.000000
  0.056478  0.051731  0.000000
  0.039193  0.053410  0.000000
  0.048122  0.063009  0.000000
  0.043075  0.067996  0.000000
  0.042002  0.075048  0.000000
  0.042549  0.081441  0.000000
  0.043310  0.088575  0.000000
  0.039691  0.094230  0.000000
  0.041574  0.101108  0.000000
  0.040185  0.107266  0.000000
  0.040139  0.114190  0.000000
  0.039822  0.120535  0.000000
  0.039687  0.127674  0.000000
  0.039122  0.134807  0.000000
  0.038455  0.142681  0.000000
  0.037365  0.150898  0.000000
  0.036090  0.159810  0.000000
  0.035096  0.168716  0.000000
  0.033951  0.177811  0.000000
  0.033451  0.187111  0.000000
  0.032659  0.195874  0.000000
  0.031940  0.203527  0.000000
  0.075984  0.010467  0.000000
  0.065495  0.011045  0.000000
  0.078558  0.020895  0.000000
  0.066430  0.022028  0.000000
  0.079973  0.032553  0.000000
  0.068459  0.029672  0.000000
  0.078732  0.042914  0.000000
  0.061844  0.044499  0.000000
  0.070788  0.056113  0.000000
  0.054778  0.056156  0.000000
  0.066970  0.064442  0.000000
  0.058857  0.066815  0.000000
  0.061369  0.074880  0.000000
  0.056048  0.078942  0.000000
  0.057955  0.086728  0.000000
  0.057331  0.092110  0.000000
  0.056266  0.099764  0.000000
  0.056155  0.105430  0.000000
  0.055695  0.112749  0.000000
  0.054766  0.119428  0.000000
  0.053403  0.126977  0.000000
  0.051964  0.134396  0.000000
  0.050451  0.142409  0.000000
  0.049185  0.150213  0.000000
  0.048242  0.158217  0.000000
  0.047399  0.166096  0.000000
  0.046499  0.174266  0.000000
  0.045889  0.182419  0.000000
  0.044911  0.191356  0.000000
  0.044476  0.201269  0.000000
  0.093908  0.011719  0.000000
  0.083399  0.009937  0.000000
  0.095213  0.019356  0.000000
  0.084958  0.023280  0.000000
  0.101997  0.029305  0.000000
  0.091575  0.031227  0.000000
  0.084710  0.040169  0.000000
  0.094909  0.045956  0.000000
  0.071415  0.048241  0.000000
  0.087299  0.055420  0.000000
  0.080844  0.057207  0.000000
  0.078406  0.066970  0.000000
  0.076449  0.072985  0.000000
  0.073646  0.078779  0.000000
  0.074335  0.085926  0.000000
  0.072564  0.091747  0.000000
  0.072707  0.098242  0.000000
  0.070962  0.104968  0.000000
  0.069865  0.111969  0.000000
  0.068199  0.119079  0.000000
  0.066794  0.126451  0.000000
  0.065340  0.133726  0.000000
  0.064045  0.141332  0.000000
  0.062757  0.148960  0.000000
  0.061347  0.157018  0.000000
  0.059764  0.165569  0.000000
  0.057992  0.174562  0.000000
  0.056280  0.183883  0.000000
  0.054826  0.193190  0.000000
  0.053682  0.201258  0.000000
  0.113582  0.012337  0.000000
  0.103211  0.008562  0.000000
  0.114344  0.023291  0.000000
  0.105651  0.018753  0.000000
  0.122872  0.029507  0.000000
  0.109683  0.033292  0.000000
  0.117666  0.037546  0.000000
  0.099602  0.037659  0.000000
  0.107772  0.047764  0.000000
  0.096694  0.052073  0.000000
  0.101989  0.062241  0.000000
  0.093490  0.064324  0.000000
  0.093405  0.071307  0.000000
  0.091913  0.077187  0.000000
  0.090363  0.084061  0.000000
  0.089618  0.089646  0.000000
  0.087674  0.096588  0.000000
  0.086300  0.103231  0.000000
  0.084487  0.110102  0.000000
  0.083118  0.116679  0.000000
  0.081318  0.124126  0.000000
  0.079580  0.131414  0.000000
  0.077600  0.139000  0.000000
  0.075319  0.147116  0.000000
  0.073003  0.155473  0.000000
  0.071050  0.163935  0.000000
  0.069460  0.172439  0.000000
  0.068235  0.180888  0.000000
  0.066942  0.189711  0.000000
  0.066459  0.199158  0.000000
  0.134780  0.008745  0.000000
  0.121850  0.009188  0.000000
  0.134327  0.017142  0.000000
  0.124125  0.018301  0.000000
  0.144637  0.028967  0.000000
  0.134105  0.025267  0.000000
  0.130577  0.033783  0.000000
  0.126411  0.043508  0.000000
  0.113184  0.047319  0.000000
  0.125948  0.053256  0.000000
  0.112463  0.057528  0.000000
  0.113969  0.063154  0.000000
  0.111263  0.071176  0.000000
  0.107470  0.075774  0.000000
  0.107258  0.082865  0.000000
  0.104681  0.088666  0.000000
  0.103390  0.095856  0.000000
  0.101686  0.101905  0.000000
  0.099778  0.108783  0.000000
  0.097681  0.115823  0.000000
  0.095444  0.122978  0.000000
  0.092960  0.130144  0.000000
  0.090145  0.138214  0.000000
  0.087881  0.146024  0.000000
  0.085948  0.154095  0.000000
  0.084087  0.162448  0.000000
  0.082016  0.171105  0.000000
  0.079735  0.180188  0.000000
  0.077468  0.189576  0.000000
  0.075762  0.198152  0.000000
  0.155948  0.010907  0.000000
  0.145948  0.010271  0.000000
  0.160722  0.022480  0.000000
  0.147128  0.018528  0.000000
  0.167447  0.026418  0.000000
  0.152283  0.026916  0.000000
  0.158454  0.035511  0.000000
  0.141558  0.038264  0.000000
  0.146014  0.042827  0.000000
  0.132843  0.047273  0.000000
  0.139705  0.055867  0.000000
  0.129181  0.060498  0.000000
  0.128768  0.067152  0.000000
  0.126255  0.072910  0.000000
  0.123633  0.079686  0.000000
  0.122101  0.085827  0.000000
  0.119817  0.091990  0.000000
  0.118015  0.098543  0.000000
  0.115372  0.105589  0.000000
  0.113151  0.112297  0.000000
  0.110182  0.119671  0.000000
  0.107039  0.127310  0.000000
  0.104360  0.135092  0.000000
  0.101640  0.143044  0.000000
  0.098767  0.151360  0.000000
  0.095856  0.159825  0.000000
  0.093047  0.168659  0.000000
  0.090749  0.177623  0.000000
  0.088903  0.186756  0.000000
  0.088247  0.195945  0.000000
  0.177093  0.007841  0.000000
  0.163086  0.010438  0.000000
  0.183440  0.015578  0.000000
  0.171447  0.015946  0.000000
  0.186217  0.026240  0.000000
  0.178856  0.023696  0.000000
  0.172337  0.034178  0.000000
  0.168466  0.039948  0.000000
  0.153736  0.043087  0.000000
  0.163355  0.049101  0.000000
  0.150732  0.054275  0.000000
  0.147355  0.058952  0.000000
  0.148303  0.067740  0.000000
  0.140862  0.071070  0.000000
  0.142197  0.078366  0.000000
  0.138141  0.083225  0.000000
  0.136458  0.090406  0.000000
  0.133640  0.096597  0.000000
  0.131022  0.103232  0.000000
  0.127951  0.110122  0.000000
  0.124390  0.117497  0.000000
  0.121243  0.124806  0.000000
  0.117660  0.132751  0.000000
  0.114343  0.140826  0.000000
  0.111102  0.149197  0.000000
  0.108279  0.157830  0.000000
  0.105868  0.166524  0.000000
  0.103292  0.175649  0.000000
  0.100410  0.185001  0.000000
  0.098203  0.193842  0.000000
  0.203741  0.009421  0.000000
  0.191339  0.010108  0.000000
  0.211809  0.017054  0.000000
  0.197546  0.016007  0.000000
  0.208818  0.025953  0.000000
  0.198307  0.023662  0.000000
  0.196199  0.032380  0.000000
  0.187077  0.036757  0.000000
  0.181636  0.040586  0.000000
  0.179146  0.049006  0.000000
  0.168188  0.052523  0.000000
  0.170899  0.059753  0.000000
  0.161307  0.063267  0.000000
  0.163959  0.069651  0.000000
  0.158393  0.074716  0.000000
  0.156474  0.080802  0.000000
  0.153321  0.087784  0.000000
  0.150884  0.092926  0.000000
  0.147482  0.100354  0.000000
  0.143967  0.106537  0.000000
  0.140159  0.113783  0.000000
  0.135962  0.121547  0.000000
  0.131948  0.129101  0.000000
  0.128008  0.137564  0.000000
  0.124571  0.145757  0.000000
  0.121159  0.154257  0.000000
  0.117578  0.163293  0.000000
  0.114010  0.172340  0.000000
  0.110966  0.182051  0.000000
  0.109708  0.191203  0.000000
  0.232211  0.010779  0.000000
  0.216373  0.012042  0.000000
  0.238291  0.016243  0.000000
  0.225089  0.012244  0.000000
  0.230276  0.025271  0.000000
  0.222225  0.023825  0.000000
  0.214927  0.032032  0.000000
  0.212363  0.038514  0.000000
  0.201218  0.038239  0.000000
  0.202226  0.046466  0.000000
  0.191572  0.049255  0.000000
  0.190272  0.053308  0.000000
  0.183147  0.061529  0.000000
  0.182563  0.065683  0.000000
  0.177753  0.072160  0.000000
  0.175112  0.078192  0.000000
  0.172056  0.083966  0.000000
  0.168942  0.089640  0.000000
  0.164841  0.096556  0.000000
  0.160992  0.102356  0.000000
  0.155791  0.110345  0.000000
  0.150961  0.117552  0.000000
  0.145987  0.125774  0.000000
  0.141872  0.133838  0.000000
  0.137586  0.142274  0.000000
  0.133566  0.151159  0.000000
  0.129833  0.160309  0.000000
  0.126629  0.169552  0.000000
  0.123344  0.179002  0.000000
  0.120659  0.188506  0.000000
  0.265028  0.010238  0.000000
  0.247933  0.010064  0.000000
  0.267262  0.015043  0.000000
  0.253618  0.013004  0.000000
  0.257463  0.022335  0.000000
  0.244208  0.021177  0.000000
  0.240935  0.030031  0.000000
  0.238094  0.036958  0.000000
  0.227061  0.033873  0.000000
  0.225242  0.042882  0.000000
  0.217077  0.048274  0.000000
  0.211200  0.051604  0.000000
  0.202109  0.058200  0.000000
  0.205477  0.062793  0.000000
  0.197754  0.068461  0.000000
  0.195150  0.073069  0.000000
  0.192519  0.079764  0.000000
  0.188009  0.085686  0.000000
  0.183895  0.091406  0.000000
  0.178177  0.098570  0.000000
  0.172447  0.105751  0.000000
  0.166234  0.113535  0.000000
  0.161336  0.121339  0.000000
  0.156176  0.129646  0.000000
  0.151292  0.138112  0.000000
  0.146812  0.147014  0.000000
  0.142530  0.156031  0.000000
  0.138125  0.165500  0.000000
  0.133873  0.175459  0.000000
  0.131749  0.184879  0.000000
  0.313227  0.012171  0.000000
  0.286858  0.012426  0.000000
  0.295644  0.011009  0.000000
  0.280157  0.010276  0.000000
  0.289107  0.022183  0.000000
  0.275532  0.020626  0.000000
  0.263945  0.028657  0.000000
  0.264575  0.037746  0.000000
  0.253785  0.030017  0.000000
  0.248861  0.038843  0.000000
  0.242952  0.048576  0.000000
  0.234854  0.046155  0.000000
  0.227127  0.054285  0.000000
  0.227912  0.058878  0.000000
  0.218773  0.063645  0.000000
  0.216915  0.068062  0.000000
  0.213199  0.075642  0.000000
  0.208125  0.079898  0.000000
  0.203427  0.086410  0.000000
  0.196593  0.093255  0.000000
  0.189763  0.100852  0.000000
  0.183077  0.108318  0.000000
  0.177207  0.116292  0.000000
  0.171118  0.124732  0.000000
  0.165508  0.133162  0.000000
  0.160231  0.142414  0.000000
  0.155100  0.151717  0.000000
  0.150306  0.161577  0.000000
  0.146210  0.171656  0.000000
  0.143387  0.180869  0.000000
  0.344236  0.011771  0.000000
  0.324353  0.014481  0.000000
  0.329145  0.009423  0.000000
  0.307868  0.011147  0.000000
  0.322798  0.026646  0.000000
  0.301650  0.018929  0.000000
  0.289721  0.030472  0.000000
  0.294057  0.039241  0.000000
  0.276884  0.025579  0.000000
  0.274444  0.037193  0.000000
  0.271418  0.048171  0.000000
  0.259304  0.041814  0.000000
  0.252696  0.050052  0.000000
  0.252626  0.055775  0.000000
  0.243591  0.060912  0.000000
  0.239546  0.063237  0.000000
  0.235323  0.071803  0.000000
  0.229961  0.074875  0.000000
  0.224048  0.081590  0.000000
  0.216011  0.088135  0.000000
  0.208099  0.095564  0.000000
  0.200938  0.102956  0.000000
  0.193925  0.110761  0.000000
  0.186909  0.119241  0.000000
  0.180160  0.127781  0.000000
  0.174343  0.137266  0.000000
  0.168253  0.146547  0.000000
  0.162851  0.156589  0.000000
  0.157405  0.167128  0.000000
  0.153791  0.176564  0.000000
  0.380918  0.013232  0.000000
  0.362327  0.011787  0.000000
  0.369548  0.011579  0.000000
  0.351209  0.010935  0.000000
  0.341683  0.024656  0.000000
  0.336101  0.016142  0.000000
  0.317328  0.022457  0.000000
  0.323149  0.038103  0.000000
  0.301806  0.025354  0.000000
  0.307032  0.032614  0.000000
  0.300872  0.042602  0.000000
  0.283935  0.035891  0.000000
  0.281808  0.045882  0.000000
  0.281631  0.053274  0.000000
  0.268744  0.055132  0.000000
  0.265224  0.059568  0.000000
  0.260215  0.066750  0.000000
  0.253002  0.070567  0.000000
  0.246116  0.076290  0.000000
  0.236638  0.083068  0.000000
  0.227784  0.090031  0.000000
  0.220425  0.097077  0.000000
  0.212194  0.104617  0.000000
  0.204764  0.112679  0.000000
  0.196355  0.120852  0.000000
  0.189425  0.130873  0.000000
  0.182042  0.140580  0.000000
  0.175174  0.150964  0.000000
  0.169559  0.162128  0.000000
  0.165918  0.171316  0.000000
  0.416070  0.012291  0.000000
  0.406264  0.010963  0.000000
  0.383964  0.011886  0.000000
  0.379605  0.025670  0.000000
  0.371495  0.021720  0.000000
  0.354129  0.019863  0.000000
  0.363067  0.023502  0.000000
  0.353943  0.028641  0.000000
  0.332770  0.025598  0.000000
  0.340327  0.034665  0.000000
  0.329533  0.038117  0.000000
  0.312326  0.033116  0.000000
  0.316529  0.046981  0.000000
  0.309375  0.047072  0.000000
  0.297402  0.051651  0.000000
  0.293278  0.054343  0.000000
  0.286314  0.062513  0.000000
  0.278181  0.066212  0.000000
  0.269708  0.071657  0.000000
  0.258582  0.077549  0.000000
  0.250035  0.084889  0.000000
  0.241745  0.090937  0.000000
  0.232860  0.098355  0.000000
  0.223580  0.105776  0.000000
  0.214912  0.113693  0.000000
  0.205205  0.124092  0.000000
  0.195715  0.133500  0.000000
  0.188781  0.145085  0.000000
  0.181895  0.156286  0.000000
  0.176656  0.165855  0.000000
  0.438505  0.017301  0.000000
  0.441831  0.009792  0.000000
  0.431689  0.012980  0.000000
  0.407003  0.018824  0.000000
  0.410777  0.027328  0.000000
  0.396236  0.010303  0.000000
  0.396420  0.020511  0.000000
  0.392534  0.022725  0.000000
  0.368571  0.036620  0.000000
  0.376665  0.034001  0.000000
  0.362272  0.038916  0.000000
  0.348889  0.034453  0.000000
  0.349851  0.045568  0.000000
  0.339420  0.045093  0.000000
  0.331202  0.048392  0.000000
  0.321983  0.053307  0.000000
  0.312034  0.058927  0.000000
  0.304034  0.062713  0.000000
  0.293058  0.067693  0.000000
  0.282133  0.073644  0.000000
  0.273401  0.079430  0.000000
  0.264902  0.085960  0.000000
  0.255027  0.091834  0.000000
  0.244714  0.099082  0.000000
  0.234573  0.106540  0.000000
  0.225030  0.116193  0.000000
  0.212682  0.124374  0.000000
  0.204262  0.135670  0.000000
  0.194781  0.149534  0.000000
  0.189515  0.158514  0.000000
  0.474815  0.013447  0.000000
  0.475610  0.009641  0.000000
  0.459215  0.012729  0.000000
  0.455256  0.011202  0.000000
  0.447993  0.021953  0.000000
  0.423657  0.011607  0.000000
  0.421578  0.022559  0.000000
  0.427965  0.025663  0.000000
  0.409146  0.032905  0.000000
  0.402786  0.043724  0.000000
  0.396770  0.037083  0.000000
  0.387218  0.031205  0.000000
  0.386260  0.041579  0.000000
  0.373575  0.046941  0.000000
  0.360551  0.045443  0.000000
  0.350763  0.053077  0.000000
  0.340139  0.056129  0.000000
  0.330354  0.060999  0.000000
  0.318559  0.062986  0.000000
  0.308037  0.069605  0.000000
  0.299551  0.075573  0.000000
  0.290017  0.080402  0.000000
  0.278895  0.086680  0.000000
  0.267967  0.092517  0.000000
  0.257647  0.099864  0.000000
  0.246041  0.107336  0.000000
  0.233701  0.117294  0.000000
  0.219501  0.128066  0.000000
  0.207798  0.142061  0.000000
  0.201084  0.150266  0.000000
  0.504847  0.010151  0.000000
  0.490481  0.018382  0.000000
  0.490086  0.009583  0.000000
  0.486490  0.021047  0.000000
  0.487958  0.031755  0.000000
  0.464030  0.021367  0.000000
  0.458104  0.035143  0.000000
  0.459943  0.024502  0.000000
  0.443244  0.026664  0.000000
  0.441662  0.033189  0.000000
  0.430393  0.034606  0.000000
  0.420620  0.036283  0.000000
  0.412398  0.041472  0.000000
  0.398125  0.050204  0.000000
  0.388793  0.045216  0.000000
  0.381532  0.056950  0.000000
  0.368503  0.056120  0.000000
  0.361145  0.058657  0.000000
  0.345550  0.061164  0.000000
  0.336906  0.067136  0.000000
  0.326295  0.072573  0.000000
  0.315542  0.077181  0.000000
  0.303285  0.081096  0.000000
  0.292509  0.088177  0.000000
  0.281591  0.094562  0.000000
  0.269848  0.102011  0.000000
  0.258350  0.109434  0.000000
  0.243593  0.116940  0.000000
  0.226923  0.127630  0.000000
  0.213148  0.142352  0.000000
  0.526104  0.011260  0.000000
  0.517443  0.019091  0.000000
  0.515704  0.013062  0.000000
  0.505117  0.015244  0.000000
  0.498231  0.028597  0.000000
  0.482705  0.033224  0.000000
  0.474366  0.024379  0.000000
  0.464070  0.039330  0.000000
  0.473977  0.035363  0.000000
  0.453748  0.048675  0.000000
  0.454132  0.044998  0.000000
  0.442419  0.044186  0.000000
  0.437590  0.048285  0.000000
  0.428648  0.046877  0.000000
  0.415442  0.050588  0.000000
  0.403220  0.058032  0.000000
  0.389986  0.063713  0.000000
  0.380356  0.060896  0.000000
  0.369313  0.063397  0.000000
  0.359310  0.069065  0.000000
  0.347080  0.073110  0.000000
  0.333680  0.075949  0.000000
  0.323952  0.079355  0.000000
  0.313438  0.086004  0.000000
  0.299098  0.092414  0.000000
  0.287140  0.097621  0.000000
  0.273571  0.104364  0.000000
  0.259583  0.111777  0.000000
  0.245561  0.119256  0.000000
  0.230061  0.129389  0.000000
 -0.010000  0.500000  0.000000
 -0.010000  0.490000  0.000000
 -0.010000  0.480000  0.000000
 -0.010000  0.470000  0.000000
 -0.010000  0.460000  0.000000
 -0.010000  0.450000  0.000000
 -0.010000  0.440000  0.000000
 -0.010000  0.430000  0.000000
 -0.010000  0.420000  0.000000
 -0.010000  0.410000  0.000000
 -0.010000  0.400000  0.000000
 -0.010000  0.390000  0.000000
 -0.010000  0.380000  0.000000
 -0.010000  0.370000  0.000000
 -0.010000  0.360000  0.000000
 -0.010000  0.350000  0.000000
 -0.010000  0.340000  0.000000
 -0.010000  0.330000  0.000000
 -0.010000  0.320000  0.000000
 -0.010000  0.310000  0.000000
 -0.010000  0.300000  0.000000
 -0.010000  0.290000  0.000000
 -0.010000  0.280000  0.000000
 -0.010000  0.270000  0.000000
 -0.010000  0.260000  0.000000
 -0.010000  0.250000  0.000000
 -0.010000  0.240000  0.000000
 -0.010000  0.230000  0.000000
 -0.010000  0.220000  0.000000
 -0.010000  0.210000  0.000000
 -0.010000  0.200000  0.000000
 -0.010000  0.190000  0.000000
 -0.010000  0.180000  0.000000
 -0.010000  0.170000  0.000000
 -0.010000  0.160000  0.000000
 -0.010000  0.150000  0.000000
 -0.010000  0.140000  0.000000
 -0.010000  0.130000  0.000000
 -0.010000  0.120000  0.000000
 -0.010000  0.110000  0.000000
 -0.010000  0.100000  0.000000
 -0.010000  0.090000  0.000000
 -0.010000  0.080000  0.000000
 -0.010000  0.070000  0.000000
 -0.010000  0.060000  0.000000
 -0.010000  0.050000  0.000000
 -0.010000  0.040000  0.000000
 -0.010000  0.030000  0.000000
 -0.010000  0.020000  0.000000
 -0.010000  0.010000  0.000000
 -0.100000 -0.010000  0.000000
 -0.090000 -0.010000  0.000000
 -0.080000 -0.010000  0.000000
 -0.070000 -0.010000  0.000000
 -0.060000 -0.010000  0.000000
 -0.050000 -0.010000  0.000000
 -0.040000 -0.010000  0.000000
 -0.030000 -0.010000  0.000000