<?xml version="1.0" encoding="UTF-8"?>
<VTKFile type="UnstructuredGrid" version="1.0" byte_order="LittleEndian">
<UnstructuredGrid>
  <Piece NumberOfPoints="1533" NumberOfCells="1533">
      <PointData>
        <DataArray type="Int32" Name="Type" format="ascii">
 1 1 1 1 1 1 1 1 1 1
 1 1 1 1 1 1 1 1 1 1
 1 1 1 1 1 1 1 1 1 1
 1 1 1 1 1 1 1 1 1 1
 1 1 1 1 1 1 1 1 1 1
 1 1 1 1 1 1 1 1 1 1
 1 3 3 3 3 3 3 3 3 3
 3 3 3 3 3 3 3 3 3 3
 3 3 3 3 3 3 3 3 3 3
 3 3 3 3 3 3 3 3 3 3
 3 3 3 3 3 3 3 3 3 3
 3 3 3 3 3 3 3 3 3 3
 3 3 3 3 3 3 3 3 3 3
 1 1 1 1 1 1 1 1 1 1
 1 1 1 1 1 1 1 1 1 1
 1 1 1 1 1 1 1 1 1 1
 1 1 1 1 1 1 1 1 1 1
 1 1 1 1 1 1 1 1 1 1
 1 1 1 1 1 1 1 1 1 1
 1 2 2 2 2 2 2 2 2 2
 2 2 2 2 2 2 2 2 2 2
 2 2 2 2 2 2 2 2 2 2
 2 2 2 2 2 2 2 2 2 2
 2 2 2 2 2 2 2 2 2 2
 2 2 2 2 2 2 2 2 2 2
 2 2 2 2 2 2 2 2 2 2
 2 2 2 2 2 2 2 2 2 2
 2 2 2 2 2 2 2 2 2 2
 2 2 2 2 2 2 2 2 2 2
 2 2 2 2 2 2 2 2 2 2
 2 2 2 2 2 2 2 2 2 2
 2 2 2 2 2 2 2 2 2 2
 2 2 2 2 2 2 2 2 2 2
 2 2 2 2 2 2 2 2 2 2
 2 2 2 2 2 2 2 2 2 2
 2 2 2 2 2 2 2 2 2 2
 2 2 2 2 2 2 2 2 2 2
 2 2 2 2 2 2 2 2 2 2
 2 2 2 2 2 2 2 2 2 2
 2 2 2 2 2 2 2 2 2 2
 2 2 2 2 2 2 2 2 2 2
 2 2 2 2 2 2 2 2 2 2
 2 2 2 2 2 2 2 2 2 2
 2 2 2 2 2 2 2 2 2 2
 2 2 2 2 2 2 2 2 2 2
 2 2 2 2 2 2 2 2 2 2
 2 2 2 2 2 2 2 2 2 2
 2 2 2 2 2 2 2 2 2 2
 2 2 2 2 2 2 2 2 2 2
 2 2 2 2 2 2 2 2 2 2
 2 2 2 2 2 2 2 2 2 2
 2 2 2 2 2 2 2 2 2 2
 2 2 2 2 2 2 2 2 2 2
 2 2 2 2 2 2 2 2 2 2
 2 2 2 2 2 2 2 2 2 2
 2 2 2 2 2 2 2 2 2 2
 2 2 2 2 2 2 2 2 2 2
 2 2 2 2 2 2 2 2 2 2
 2 2 2 2 2 2 2 2 2 2
 2 2 2 2 2 2 2 2 2 2
 2 2 2 2 2 2 2 2 2 2
 2 2 2 2 2 2 2 2 2 2
 2 2 2 2 2 2 2 2 2 2
 2 2 2 2 2 2 2 2 2 2
 2 2 2 2 2 2 2 2 2 2
 2 2 2 2 2 2 2 2 2 2
 2 2 2 2 2 2 2 2 2 2
 2 2 2 2 2 2 2 2 2 2
 2 2 2 2 2 2 2 2 2 2
 2 2 2 2 2 2 2 2 2 2
 2 2 2 2 2 2 2 2 2 2
 2 2 2 2 2 2 2 2 2 2
 2 2 2 2 2 2 2 2 2 2
 2 2 2 2 2 2 2 2 2 2
 2 2 2 2 2 2 2 2 2 2
 2 2 2 2 2 2 2 2 2 2
 2 2 2 2 2 2 2 2 2 0
 0 0 0 0 0 0 0 0 0 0
 0 0 0 0 0 0 0 0 0 0
 0 0 0 0 0 0 0 0 0 0
 0 0 0 0 0 0 0 0 0 0
 0 0 0 0 0 0 0 0 0 0
 0 0 0 0 0 0 0 0 0 0
 0 0 0 0 0 0 0 0 0 0
 0 0 0 0 0 0 0 0 0 0
 0 0 0 0 0 0 0 0 0 0
 0 0 0 0 0 0 0 0 0 0
 0 0 0 0 0 0 0 0 0 0
 0 0 0 0 0 0 0 0 0 0
 0 0 0 0 0 0 0 0 0 0
 0 0 0 0 0 0 0 0 0 0
 0 0 0 0 0 0 0 0 0 0
 0 0 0 0 0 0 0 0 0 0
 0 0 0 0 0 0 0 0 0 0
 0 0 0 0 0 0 0 0 0 0
 0 0 0 0 0 0 0 0 0 0
 0 0 0 0 0 0 0 0 0 0
 0 0 0 0 0 0 0 0 0 0
 0 0 0 0 0 0 0 0 0 0
 0 0 0 0 0 0 0 0 0 0
 0 0 0 0 0 0 0 0 0 0
 0 0 0 0 0 0 0 0 0 0
 0 0 0 0 0 0 0 0 0 0
 0 0 0 0 0 0 0 0 0 0
 0 0 0 0 0 0 0 0 0 0
 0 0 0 0 0 0 0 0 0 0
 0 0 0 0 0 0 0 0 0 0
 0 0 0 0 0 0 0 0 0 0
 0 0 0 0 0 0 0 0 0 0
 0 0 0 0 0 0 0 0 0 0
 0 0 0 0 0 0 0 0 0 0
 0 0 0 0 0 0 0 0 0 0
 0 0 0 0 0 0 0 0 0 0
 0 0 0 0 0 0 0 0 0 0
 0 0 0 0 0 0 0 0 0 0
 0 0 0 0 0 0 0 0 0 0
 0 0 0 0 0 0 0 0 0 0
 0 0 0 0 0 0 0 0 0 0
 0 0 0 0 0 0 0 0 0 0
 0 0 0 0 0 0 0 0 0 0
 0 0 0 0 0 0 0 0 0 0
 0 0 0 0 0 0 0 0 0 0
 0 0 0 0 0 0 0 0 0 0
 0 0 0 0 0 0 0 0 0 0
 0 0 0 0 0 0 0 0 0 0
 0 0 0 0 0 0 0 0 0 0
 0 0 0 0 0 0 0 0 0 0
 0 0 0 0 0 0 0 0 0 0
 0 0 0 0 0 0 0 0 0 0
 0 0 0 0 0 0 0 0 0 0
 0 0 0 0 0 0 0 0 0 0
 0 0 0 0 0 0 0 0 0 0
 0 0 0 0 0 0 0 0 0 0
 0 0 0 0 0 0 0 0 0 0
 0 0 0 0 0 0 0 0 0 0
 0 0 0 0 0 0 0 0 0 0
 0 0 0 0 0 0 0 0 0 0
 0 0 0 0 0 0 0 0 0 0
 0 0 0 0 0 0 0 0 0 0
 0 0 0 0 0 0 0 0 0 0
 0 0 0 0 0 0 0 0 0 0
 0 0 0 0 0 0 0 0 0 0
 0 0 0 0 0 0 0 0 0 0
 0 0 0 0 0 0 0 0 0 0
 0 0 0 0 0 0 0 0 0 0
 0 0 0 0 0 0 0 0 0 0
 0 0 0 0 0 0 0 0 0 0
 0 0 0 0 0 0 0 0 0 0
 0 0 0 0 0 0 0 0 0 0
 0 0 0 0 0 0 0 0 0 0
 0 0 0 0 0 0 0 0 0 0
 0 0 0 0 0 0 0 0 0 0
 0 0 0 0 0 0 0 0 0 0
 0 0 0
        </DataArray>
      </PointData>
      <Points>
        <DataArray type="Float32" NumberOfComponents="3" format="ascii">
  0.000000  0.500000  0.000000
  0.000000  0.490000  0.000000
  0.000000  0.480000  0.000000
  0.000000  0.470000  0.000000
  0.000000  0.460000  0.000000
  0.000000  0.450000  0.000000
  0.000000  0.440000  0.000000
  0.000000  0.430000  0.000000
  0.000000  0.420000  0.000000
  0.000000  0.410000  0.000000
  0.000000  0.400000  0.000000
  0.000000  0.390000  0.000000
  0.000000  0.380000  0.000000
  0.000000  0.370000  0.000000
  0.000000  0.360000  0.000000
  0.000000  0.350000  0.000000
  0.000000  0.340000  0.000000
  0.000000  0.330000  0.000000
  0.000000  0.320000  0.000000
  0.000000  0.310000  0.000000
  0.000000  0.300000  0.000000
  0.000000  0.290000  0.000000
  0.000000  0.280000  0.000000
  0.000000  0.270000  0.000000
  0.000000  0.260000  0.000000
  0.000000  0.250000  0.000000
  0.000000  0.240000  0.000000
  0.000000  0.230000  0.000000
  0.000000  0.220000  0.000000
  0.000000  0.210000  0.000000
  0.000000  0.200000  0.000000
  0.000000  0.190000  0.000000
  0.000000  0.180000  0.000000
  0.000000  0.170000  0.000000
  0.000000  0.160000  0.000000
  0.000000  0.150000  0.000000
  0.000000  0.140000  0.000000
  0.000000  0.130000  0.000000
  0.000000  0.120000  0.000000
  0.000000  0.110000  0.000000
  0.000000  0.100000  0.000000
  0.000000  0.090000  0.000000
  0.000000  0.080000  0.000000
  0.000000  0.070000  0.000000
  0.000000  0.060000  0.000000
  0.000000  0.050000  0.000000
  0.000000  0.040000  0.000000
  0.000000  0.030000  0.000000
  0.000000  0.020000  0.000000
  0.000000  0.010000  0.000000
 -0.100000  0.000000  0.000000
 -0.090000  0.000000  0.000000
 -0.080000  0.000000  0.000000
 -0.070000  0.000000  0.000000
 -0.060000  0.000000  0.000000
 -0.050000  0.000000  0.000000
 -0.040000  0.000000  0.000000
 -0.030000  0.000000  0.000000
 -0.020000  0.000000  0.000000
 -0.010000  0.000000  0.000000
 -0.000000  0.000000  0.000000
  0.010000  0.000000  0.000000
  0.020000  0.000000  0.000000
  0.030000  0.000000  0.000000
  0.040000  0.000000  0.000000
  0.050000  0.000000  0.000000
  0.060000  0.000000  0.000000
  0.070000  0.000000  0.000000
  0.080000  0.000000  0.000000
  0.090000  0.000000  0.000000
  0.100000  0.000000  0.000000
  0.110000  0.000000  0.000000
  0.120000  0.000000  0.000000
  0.130000  0.000000  0.000000
  0.140000  0.000000  0.000000
  0.150000  0.000000  0.000000
  0.160000  0.000000  0.000000
  0.170000  0.000000  0.000000
  0.180000  0.000000  0.000000
  0.190000  0.000000  0.000000
  0.200000  0.000000  0.000000
  0.210000  0.000000  0.000000
  0.220000  0.000000  0.000000
  0.230000  0.000000  0.000000
  0.240000  0.000000  0.000000
  0.250000  0.000000  0.000000
  0.260000  0.000000  0.000000
  0.270000  0.000000  0.000000
  0.280000  0.000000  0.000000
  0.290000  0.000000  0.000000
  0.300000  0.000000  0.000000
  0.310000  0.000000  0.000000
  0.320000  0.000000  0.000000
  0.330000  0.000000  0.000000
  0.340000  0.000000  0.000000
  0.350000  0.000000  0.000000
  0.360000  0.000000  0.000000
  0.370000  0.000000  0.000000
  0.380000  0.000000  0.000000
  0.390000  0.000000  0.000000
  0.400000  0.000000  0.000000
  0.410000  0.000000  0.000000
  0.420000  0.000000  0.000000
  0.430000  0.000000  0.000000
  0.440000  0.000000  0.000000
  0.450000  0.000000  0.000000
  0.460000  0.000000  0.000000
  0.470000  0.000000  0.000000
  0.480000  0.000000  0.000000
  0.490000  0.000000  0.000000
  0.500000  0.000000  0.000000
  0.510000  0.000000  0.000000
  0.520000  0.000000  0.000000
  0.530000  0.000000  0.000000
  0.540000  0.000000  0.000000
  0.550000  0.000000  0.000000
  0.560000  0.000000  0.000000
  0.570000  0.000000  0.000000
  0.580000  0.000000  0.000000
  0.590000  0.000000  0.000000
  0.600000  0.000000  0.000000
  0.610000  0.000000  0.000000
  0.620000  0.000000  0.000000
  0.630000  0.000000  0.000000
  0.640000  0.000000  0.000000
  0.650000  0.000000  0.000000
  0.660000  0.000000  0.000000
  0.670000  0.000000  0.000000
  0.680000  0.000000  0.000000
  0.690000  0.000000  0.000000
  0.700000  0.000000  0.000000
  0.710000  0.000000  0.000000
  0.720000  0.000000  0.000000
  0.730000  0.000000  0.000000
  0.740000  0.000000  0.000000
  0.750000  0.000000  0.000000
  0.760000  0.000000  0.000000
  0.770000  0.000000  0.000000
  0.780000  0.000000  0.000000
  0.790000  0.000000  0.000000
  0.800000  0.000000  0.000000
  0.700000  0.010000  0.000000
  0.700000  0.020000  0.000000
  0.700000  0.030000  0.000000
  0.700000  0.040000  0.000000
  0.700000  0.050000  0.000000
  0.700000  0.060000  0.000000
  0.700000  0.070000  0.000000
  0.700000  0.080000  0.000000
  0.700000  0.090000  0.000000
  0.700000  0.100000  0.000000
  0.700000  0.110000  0.000000
  0.700000  0.120000  0.000000
  0.700000  0.130000  0.000000
  0.700000  0.140000  0.000000
  0.700000  0.150000  0.000000
  0.700000  0.160000  0.000000
  0.700000  0.170000  0.000000
  0.700000  0.180000  0.000000
  0.700000  0.190000  0.000000
  0.700000  0.200000  0.000000
  0.700000  0.210000  0.000000
  0.700000  0.220000  0.000000
  0.700000  0.230000  0.000000
  0.700000  0.240000  0.000000
  0.700000  0.250000  0.000000
  0.700000  0.260000  0.000000
  0.700000  0.270000  0.000000
  0.700000  0.280000  0.000000
  0.700000  0.290000  0.000000
  0.700000  0.300000  0.000000
  0.700000  0.310000  0.000000
  0.700000  0.320000  0.000000
  0.700000  0.330000  0.000000
  0.700000  0.340000  0.000000
  0.700000  0.350000  0.000000
  0.700000  0.360000  0.000000
  0.700000  0.370000  0.000000
  0.700000  0.380000  0.000000
  0.700000  0.390000  0.000000
  0.700000  0.400000  0.000000
  0.700000  0.410000  0.000000
  0.700000  0.420000  0.000000
  0.700000  0.430000  0.000000
  0.700000  0.440000  0.000000
  0.700000  0.450000  0.000000
  0.700000  0.460000  0.000000
  0.700000  0.470000  0.000000
  0.700000  0.480000  0.000000
  0.700000  0.490000  0.000000
  0.700000  0.500000  0.000000
  0.022567  0.009054  0.000000
  0.025629  0.014420  0.000000
  0.050612  0.016632  0.000000
  0.010033  0.009740  0.000000
  0.063765  0.018748  0.000000
  0.010982  0.017844  0.000000
  0.076451  0.025223  0.000000
  0.068432  0.010135  0.000000
  0.109155  0.024318  0.000000
  0.092302  0.026101  0.000000
  0.096997  0.029971  0.000000
  0.013411  0.024828  0.000000
  0.032496  0.032882  0.000000
  0.008360  0.033676  0.000000
  0.014409  0.042193  0.000000
  0.023165  0.040266  0.000000
  0.057189  0.047277  0.000000
  0.010020  0.048177  0.000000
  0.056855  0.039124  0.000000
  0.015980  0.055711  0.000000
  0.028350  0.047550  0.000000
  0.021277  0.064703  0.000000
  0.008610  0.062201  0.000000
  0.015228  0.076411  0.000000
  0.011154  0.071298  0.000000
  0.039222  0.076066  0.000000
  0.023963  0.080165  0.000000
  0.026164  0.074945  0.000000
  0.031197  0.064122  0.000000
  0.044815  0.076683  0.000000
  0.056844  0.008938  0.000000
  0.036491  0.010777  0.000000
  0.075902  0.011284  0.000000
  0.079260  0.022356  0.000000
  0.103197  0.010381  0.000000
  0.118289  0.014683  0.000000
  0.130912  0.008633  0.000000
  0.085364  0.009510  0.000000
  0.108814  0.019948  0.000000
  0.090802  0.018226  0.000000
  0.057324  0.031627  0.000000
  0.044103  0.009935  0.000000
  0.088044  0.036374  0.000000
  0.036244  0.021575  0.000000
  0.068595  0.033906  0.000000
  0.020127  0.030352  0.000000
  0.027096  0.023412  0.000000
  0.044528  0.024943  0.000000
  0.071346  0.043748  0.000000
  0.037175  0.037823  0.000000
  0.081277  0.044885  0.000000
  0.046968  0.032100  0.000000
  0.025719  0.054587  0.000000
  0.043051  0.056227  0.000000
  0.037507  0.064185  0.000000
  0.057266  0.066882  0.000000
  0.038435  0.047765  0.000000
  0.048558  0.062300  0.000000
  0.052888  0.073560  0.000000
  0.068919  0.076919  0.000000
  0.170019  0.008622  0.000000
  0.116150  0.008878  0.000000
  0.159082  0.010379  0.000000
  0.127567  0.020184  0.000000
  0.147514  0.008595  0.000000
  0.195531  0.010125  0.000000
  0.226180  0.010400  0.000000
  0.163350  0.022501  0.000000
  0.131497  0.026643  0.000000
  0.096373  0.010695  0.000000
  0.146411  0.026499  0.000000
  0.136217  0.013984  0.000000
  0.111622  0.035566  0.000000
  0.119186  0.058681  0.000000
  0.145811  0.043863  0.000000
  0.059561  0.022993  0.000000
  0.094804  0.042729  0.000000
  0.077440  0.035279  0.000000
  0.070164  0.051846  0.000000
  0.046583  0.045149  0.000000
  0.088087  0.053212  0.000000
  0.080693  0.064906  0.000000
  0.077493  0.056807  0.000000
  0.056522  0.054011  0.000000
  0.069471  0.067752  0.000000
  0.065090  0.060305  0.000000
  0.068455  0.078940  0.000000
  0.082577  0.086761  0.000000
  0.088512  0.066991  0.000000
  0.057699  0.081806  0.000000
  0.215842  0.014746  0.000000
  0.183568  0.009466  0.000000
  0.228909  0.013462  0.000000
  0.186406  0.014825  0.000000
  0.221854  0.039138  0.000000
  0.208193  0.010372  0.000000
  0.202517  0.035220  0.000000
  0.202363  0.016171  0.000000
  0.180448  0.026927  0.000000
  0.119190  0.028955  0.000000
  0.193140  0.028561  0.000000
  0.144443  0.017076  0.000000
  0.157085  0.031190  0.000000
  0.102738  0.038781  0.000000
  0.112710  0.050853  0.000000
  0.171348  0.016530  0.000000
  0.120596  0.037251  0.000000
  0.134905  0.031746  0.000000
  0.120632  0.045912  0.000000
  0.128665  0.052919  0.000000
  0.150324  0.047290  0.000000
  0.106363  0.047695  0.000000
  0.094108  0.053516  0.000000
  0.132983  0.059109  0.000000
  0.105410  0.061949  0.000000
  0.089775  0.069474  0.000000
  0.099603  0.079750  0.000000
  0.101622  0.060673  0.000000
  0.090225  0.084082  0.000000
  0.110122  0.072568  0.000000
  0.257921  0.011123  0.000000
  0.240545  0.012261  0.000000
  0.245947  0.011313  0.000000
  0.217615  0.022228  0.000000
  0.307972  0.016747  0.000000
  0.215553  0.029173  0.000000
  0.205555  0.024802  0.000000
  0.233196  0.024093  0.000000
  0.192240  0.024102  0.000000
  0.250618  0.031454  0.000000
  0.174501  0.024716  0.000000
  0.228975  0.030067  0.000000
  0.211563  0.038226  0.000000
  0.189571  0.041007  0.000000
  0.202303  0.053799  0.000000
  0.155861  0.018291  0.000000
  0.175641  0.035755  0.000000
  0.146848  0.032755  0.000000
  0.171909  0.050408  0.000000
  0.132719  0.041307  0.000000
  0.136731  0.046740  0.000000
  0.160261  0.042347  0.000000
  0.146311  0.060263  0.000000
  0.101003  0.075241  0.000000
  0.143888  0.073892  0.000000
  0.120747  0.065411  0.000000
  0.134160  0.071666  0.000000
  0.164054  0.073454  0.000000
  0.141037  0.079688  0.000000
  0.117851  0.071226  0.000000
  0.305500  0.010863  0.000000
  0.278621  0.012897  0.000000
  0.332829  0.015287  0.000000
  0.305712  0.030313  0.000000
  0.355707  0.011747  0.000000
  0.307481  0.036948  0.000000
  0.322505  0.010943  0.000000
  0.292695  0.010439  0.000000
  0.294964  0.014787  0.000000
  0.324325  0.024225  0.000000
  0.267589  0.021666  0.000000
  0.277994  0.012243  0.000000
  0.266479  0.011259  0.000000
  0.234831  0.039931  0.000000
  0.211183  0.051840  0.000000
  0.222842  0.044805  0.000000
  0.162937  0.035985  0.000000
  0.253407  0.037911  0.000000
  0.174724  0.042639  0.000000
  0.203534  0.043251  0.000000
  0.187015  0.040017  0.000000
  0.193892  0.051195  0.000000
  0.141009  0.063248  0.000000
  0.181175  0.071018  0.000000
  0.173722  0.061321  0.000000
  0.166343  0.052153  0.000000
  0.160017  0.061779  0.000000
  0.154454  0.055748  0.000000
  0.128203  0.079782  0.000000
  0.158666  0.069099  0.000000
  0.381270  0.015083  0.000000
  0.318005  0.013322  0.000000
  0.337005  0.011359  0.000000
  0.311404  0.025249  0.000000
  0.426796  0.022754  0.000000
  0.360946  0.011416  0.000000
  0.409361  0.013897  0.000000
  0.344641  0.011855  0.000000
  0.350792  0.022458  0.000000
  0.322842  0.028199  0.000000
  0.340061  0.024250  0.000000
  0.343497  0.031628  0.000000
  0.291948  0.023961  0.000000
  0.247607  0.022144  0.000000
  0.256462  0.019151  0.000000
  0.239357  0.027484  0.000000
  0.238969  0.041796  0.000000
  0.279032  0.031691  0.000000
  0.230496  0.057686  0.000000
  0.228751  0.051687  0.000000
  0.241956  0.053711  0.000000
  0.218302  0.060799  0.000000
  0.184599  0.056336  0.000000
  0.210879  0.059419  0.000000
  0.201089  0.067902  0.000000
  0.195888  0.088359  0.000000
  0.192748  0.077574  0.000000
  0.188044  0.059616  0.000000
  0.175919  0.071249  0.000000
  0.169420  0.076062  0.000000
  0.415525  0.011737  0.000000
  0.400793  0.012972  0.000000
  0.450354  0.028047  0.000000
  0.426294  0.010829  0.000000
  0.494939  0.027817  0.000000
  0.447852  0.012433  0.000000
  0.457011  0.019688  0.000000
  0.417712  0.021150  0.000000
  0.432932  0.012919  0.000000
  0.411123  0.027609  0.000000
  0.395287  0.011231  0.000000
  0.376326  0.008695  0.000000
  0.371687  0.022005  0.000000
  0.321391  0.039309  0.000000
  0.326749  0.042622  0.000000
  0.276005  0.026454  0.000000
  0.261969  0.029535  0.000000
  0.311426  0.050787  0.000000
  0.289374  0.027014  0.000000
  0.305233  0.044308  0.000000
  0.255827  0.050351  0.000000
  0.261535  0.041572  0.000000
  0.271609  0.049377  0.000000
  0.228459  0.066748  0.000000
  0.247286  0.047992  0.000000
  0.239289  0.065510  0.000000
  0.237275  0.074350  0.000000
  0.212959  0.076192  0.000000
  0.195042  0.066292  0.000000
  0.215022  0.070998  0.000000
  0.507763  0.009780  0.000000
  0.480459  0.012006  0.000000
  0.511765  0.020514  0.000000
  0.486415  0.010830  0.000000
  0.537131  0.030483  0.000000
  0.496884  0.013205  0.000000
  0.510028  0.026350  0.000000
  0.461392  0.015699  0.000000
  0.465813  0.009157  0.000000
  0.467511  0.030968  0.000000
  0.399530  0.025090  0.000000
  0.413727  0.036693  0.000000
  0.379785  0.029105  0.000000
  0.398006  0.030353  0.000000
  0.387963  0.015674  0.000000
  0.333070  0.032986  0.000000
  0.355833  0.025504  0.000000
  0.335768  0.051021  0.000000
  0.364435  0.049932  0.000000
  0.319007  0.048628  0.000000
  0.296195  0.034616  0.000000
  0.283108  0.040875  0.000000
  0.272858  0.048901  0.000000
  0.269011  0.035918  0.000000
  0.284931  0.048033  0.000000
  0.254666  0.071516  0.000000
  0.247532  0.062731  0.000000
  0.250813  0.071631  0.000000
  0.270300  0.062979  0.000000
  0.227890  0.075130  0.000000
  0.585826  0.019373  0.000000
  0.509286  0.035900  0.000000
  0.596098  0.016418  0.000000
  0.569814  0.011036  0.000000
  0.605507  0.034000  0.000000
  0.553181  0.010060  0.000000
  0.604292  0.022650  0.000000
  0.537923  0.018958  0.000000
  0.522505  0.025490  0.000000
  0.474093  0.016448  0.000000
  0.481234  0.039793  0.000000
  0.468674  0.025624  0.000000
  0.385964  0.028210  0.000000
  0.446157  0.010992  0.000000
  0.435661  0.020883  0.000000
  0.443267  0.025964  0.000000
  0.369420  0.036651  0.000000
  0.367915  0.018048  0.000000
  0.363010  0.031611  0.000000
  0.338237  0.039847  0.000000
  0.356824  0.037526  0.000000
  0.316600  0.063044  0.000000
  0.347580  0.045374  0.000000
  0.299173  0.052835  0.000000
  0.333281  0.066801  0.000000
  0.312157  0.062099  0.000000
  0.291592  0.044088  0.000000
  0.287869  0.062415  0.000000
  0.258677  0.057381  0.000000
  0.271272  0.063785  0.000000
  0.622556  0.038307  0.000000
  0.582975  0.038471  0.000000
  0.653882  0.016763  0.000000
  0.605367  0.009710  0.000000
  0.644634  0.026804  0.000000
  0.610562  0.017730  0.000000
  0.623965  0.014205  0.000000
  0.618816  0.011592  0.000000
  0.580609  0.011443  0.000000
  0.539663  0.012004  0.000000
  0.576393  0.020433  0.000000
  0.497228  0.017552  0.000000
  0.524786  0.014050  0.000000
  0.536716  0.052072  0.000000
  0.502039  0.055059  0.000000
  0.446591  0.035988  0.000000
  0.455864  0.039974  0.000000
  0.427387  0.035456  0.000000
  0.415590  0.036719  0.000000
  0.401407  0.066418  0.000000
  0.404326  0.056201  0.000000
  0.386585  0.047945  0.000000
  0.352086  0.043918  0.000000
  0.361610  0.067366  0.000000
  0.329987  0.056337  0.000000
  0.303651  0.061310  0.000000
  0.348820  0.068219  0.000000
  0.293046  0.058947  0.000000
  0.288269  0.072512  0.000000
  0.279322  0.065122  0.000000
  0.666065  0.031372  0.000000
  0.657431  0.011719  0.000000
  0.668701  0.045961  0.000000
  0.666022  0.009696  0.000000
  0.677956  0.011834  0.000000
  0.667536  0.021920  0.000000
  0.646071  0.014621  0.000000
  0.635254  0.024330  0.000000
  0.641303  0.009784  0.000000
  0.628565  0.038879  0.000000
  0.614893  0.026275  0.000000
  0.592912  0.011459  0.000000
  0.571909  0.028293  0.000000
  0.566481  0.015007  0.000000
  0.515126  0.012901  0.000000
  0.521006  0.036806  0.000000
  0.498402  0.040033  0.000000
  0.508906  0.041592  0.000000
  0.493638  0.052502  0.000000
  0.488561  0.035626  0.000000
  0.443414  0.047237  0.000000
  0.456836  0.039468  0.000000
  0.399764  0.044414  0.000000
  0.402323  0.041071  0.000000
  0.390439  0.035642  0.000000
  0.362721  0.056324  0.000000
  0.334528  0.063955  0.000000
  0.351128  0.062381  0.000000
  0.344958  0.055213  0.000000
  0.320349  0.068798  0.000000
  0.677734  0.053502  0.000000
  0.665592  0.129065  0.000000
  0.691139  0.069386  0.000000
  0.684287  0.033000  0.000000
  0.666354  0.118022  0.000000
  0.673965  0.060013  0.000000
  0.678003  0.069611  0.000000
  0.672483  0.073373  0.000000
  0.655748  0.032761  0.000000
  0.652202  0.045762  0.000000
  0.652968  0.030420  0.000000
  0.631262  0.011721  0.000000
  0.612430  0.062930  0.000000
  0.628272  0.070238  0.000000
  0.557565  0.036997  0.000000
  0.590902  0.057522  0.000000
  0.557423  0.027441  0.000000
  0.551851  0.014172  0.000000
  0.530666  0.009951  0.000000
  0.591111  0.042180  0.000000
  0.526863  0.028918  0.000000
  0.513731  0.053229  0.000000
  0.478649  0.025694  0.000000
  0.464540  0.066535  0.000000
  0.451284  0.053488  0.000000
  0.417422  0.053768  0.000000
  0.389425  0.049803  0.000000
  0.376397  0.039834  0.000000
  0.373442  0.047483  0.000000
  0.368046  0.061633  0.000000
  0.683247  0.110504  0.000000
  0.656565  0.133201  0.000000
  0.691351  0.038022  0.000000
  0.688170  0.063796  0.000000
  0.644146  0.184921  0.000000
  0.671493  0.020630  0.000000
  0.690648  0.122989  0.000000
  0.681434  0.133932  0.000000
  0.657395  0.120668  0.000000
  0.665929  0.144803  0.000000
  0.683382  0.078697  0.000000
  0.661646  0.109137  0.000000
  0.665099  0.055298  0.000000
  0.651410  0.139190  0.000000
  0.650181  0.063154  0.000000
  0.640013  0.034935  0.000000
  0.644871  0.081118  0.000000
  0.618969  0.056595  0.000000
  0.633914  0.058347  0.000000
  0.593000  0.030963  0.000000
  0.569550  0.030213  0.000000
  0.548658  0.021887  0.000000
  0.538891  0.049995  0.000000
  0.472912  0.058317  0.000000
  0.473435  0.042665  0.000000
  0.465227  0.058129  0.000000
  0.427590  0.042640  0.000000
  0.421643  0.054011  0.000000
  0.385204  0.059496  0.000000
  0.377749  0.057246  0.000000
  0.690859  0.105831  0.000000
  0.649823  0.220061  0.000000
  0.644847  0.182217  0.000000
  0.671194  0.178697  0.000000
  0.684226  0.215673  0.000000
  0.684215  0.085945  0.000000
  0.684218  0.011659  0.000000
  0.642529  0.179084  0.000000
  0.677284  0.165008  0.000000
  0.685603  0.100154  0.000000
  0.692322  0.171033  0.000000
  0.680835  0.034718  0.000000
  0.685240  0.022313  0.000000
  0.673417  0.094054  0.000000
  0.661383  0.045403  0.000000
  0.679631  0.118209  0.000000
  0.658168  0.074773  0.000000
  0.638341  0.051109  0.000000
  0.653246  0.073808  0.000000
  0.629962  0.023658  0.000000
  0.636769  0.040598  0.000000
  0.585696  0.050438  0.000000
  0.566733  0.059516  0.000000
  0.543400  0.044830  0.000000
  0.539104  0.033781  0.000000
  0.557890  0.043431  0.000000
  0.489297  0.026072  0.000000
  0.471736  0.041784  0.000000
  0.433636  0.034217  0.000000
  0.433213  0.056776  0.000000
  0.685599  0.153867  0.000000
  0.684262  0.048867  0.000000
  0.684406  0.249139  0.000000
  0.684335  0.353977  0.000000
  0.689841  0.085559  0.000000
  0.691485  0.016288  0.000000
  0.661612  0.254552  0.000000
  0.685635  0.272174  0.000000
  0.688790  0.051992  0.000000
  0.680190  0.156806  0.000000
  0.675149  0.231464  0.000000
  0.672072  0.143843  0.000000
  0.683379  0.202238  0.000000
  0.634815  0.225986  0.000000
  0.643144  0.215998  0.000000
  0.668078  0.184263  0.000000
  0.635226  0.154059  0.000000
  0.671791  0.036489  0.000000
  0.664632  0.096042  0.000000
  0.652029  0.100079  0.000000
  0.664558  0.067550  0.000000
  0.647539  0.050226  0.000000
  0.625053  0.055573  0.000000
  0.639656  0.073510  0.000000
  0.580478  0.051465  0.000000
  0.567707  0.048031  0.000000
  0.548155  0.033751  0.000000
  0.492189  0.046506  0.000000
  0.481073  0.054689  0.000000
  0.435421  0.049810  0.000000
  0.656179  0.327767  0.000000
  0.588872  0.368535  0.000000
  0.658635  0.215312  0.000000
  0.622001  0.284535  0.000000
  0.555967  0.432968  0.000000
  0.642117  0.298884  0.000000
  0.678466  0.272227  0.000000
  0.686770  0.288712  0.000000
  0.639418  0.361222  0.000000
  0.647646  0.261627  0.000000
  0.675077  0.170365  0.000000
  0.678271  0.227748  0.000000
  0.659230  0.227312  0.000000
  0.611814  0.183914  0.000000
  0.662013  0.229360  0.000000
  0.688931  0.195048  0.000000
  0.664471  0.177763  0.000000
  0.683206  0.181450  0.000000
  0.677569  0.210327  0.000000
  0.672021  0.133795  0.000000
  0.668368  0.150655  0.000000
  0.634563  0.121990  0.000000
  0.654459  0.056813  0.000000
  0.671418  0.087151  0.000000
  0.613033  0.066061  0.000000
  0.602943  0.052867  0.000000
  0.590602  0.030123  0.000000
  0.573197  0.040787  0.000000
  0.513055  0.049470  0.000000
  0.450641  0.053325  0.000000
  0.637762  0.274909  0.000000
  0.653750  0.308497  0.000000
  0.680042  0.240068  0.000000
  0.649455  0.363423  0.000000
  0.685828  0.187792  0.000000
  0.690740  0.140660  0.000000
  0.669232  0.307934  0.000000
  0.661914  0.342660  0.000000
  0.680122  0.386053  0.000000
  0.553310  0.299288  0.000000
  0.630124  0.226858  0.000000
  0.573506  0.336207  0.000000
  0.629894  0.297478  0.000000
  0.679971  0.265151  0.000000
  0.664764  0.283657  0.000000
  0.669130  0.246209  0.000000
  0.644758  0.230741  0.000000
  0.671228  0.159186  0.000000
  0.682292  0.239089  0.000000
  0.666645  0.263777  0.000000
  0.626188  0.162454  0.000000
  0.647600  0.143705  0.000000
  0.678185  0.103850  0.000000
  0.642068  0.132828  0.000000
  0.664208  0.081342  0.000000
  0.638392  0.062448  0.000000
  0.619443  0.033536  0.000000
  0.558906  0.053765  0.000000
  0.530184  0.047281  0.000000
  0.668128  0.308878  0.000000
  0.597195  0.352916  0.000000
  0.622466  0.492971  0.000000
  0.649189  0.454533  0.000000
  0.649857  0.460856  0.000000
  0.614167  0.288656  0.000000
  0.677133  0.315781  0.000000
  0.622993  0.355495  0.000000
  0.673476  0.290127  0.000000
  0.677082  0.321231  0.000000
  0.618745  0.196715  0.000000
  0.636751  0.241096  0.000000
  0.621867  0.225193  0.000000
  0.683219  0.130458  0.000000
  0.657731  0.202381  0.000000
  0.643194  0.154998  0.000000
  0.653930  0.164195  0.000000
  0.667901  0.110117  0.000000
  0.659291  0.091249  0.000000
  0.644048  0.084592  0.000000
  0.608396  0.037153  0.000000
  0.600631  0.049687  0.000000
  0.658288  0.460889  0.000000
  0.660116  0.450124  0.000000
  0.624209  0.314210  0.000000
  0.668995  0.397498  0.000000
  0.605525  0.350637  0.000000
  0.601686  0.317905  0.000000
  0.641866  0.342067  0.000000
  0.644459  0.306436  0.000000
  0.631149  0.293997  0.000000
  0.634181  0.261938  0.000000
  0.649118  0.195399  0.000000
  0.637341  0.170671  0.000000
  0.625895  0.189596  0.000000
  0.655004  0.155111  0.000000
  0.649511  0.094809  0.000000
  0.654225  0.121071  0.000000
  0.611322  0.050602  0.000000
 -0.010000  0.500000  0.000000
 -0.010000  0.490000  0.000000
 -0.010000  0.480000  0.000000
 -0.010000  0.470000  0.000000
 -0.010000  0.460000  0.000000
 -0.010000  0.450000  0.000000
 -0.010000  0.440000  0.000000
 -0.010000  0.430000  0.000000
 -0.010000  0.420000  0.000000
 -0.010000  0.410000  0.000000
 -0.010000  0.400000  0.000000
 -0.010000  0.390000  0.000000
 -0.010000  0.380000  0.000000
 -0.010000  0.370000  0.000000
 -0.010000  0.360000  0.000000
 -0.010000  0.350000  0.000000
 -0.010000  0.340000  0.000000
 -0.010000  0.330000  0.000000
 -0.010000  0.320000  0.000000
 -0.010000  0.310000  0.000000
 -0.010000  0.300000  0.000000
 -0.010000  0.290000  0.000000
 -0.010000  0.280000  0.000000
 -0.010000  0.270000  0.000000
 -0.010000  0.260000  0.000000
 -0.010000  0.250000  0.000000
 -0.010000  0.240000  0.000000
 -0.010000  0.230000  0.000000
 -0.010000  0.220000  0.000000
 -0.010000  0.210000  0.000000
 -0.010000  0.200000  0.000000
 -0.010000  0.190000  0.000000
 -0.010000  0.180000  0.000000
 -0.010000  0.170000  0.000000
 -0.010000  0.160000  0.000000
 -0.010000  0.150000  0.000000
 -0.010000  0.140000  0.000000
 -0.010000  0.130000  0.000000
 -0.010000  0.120000  0.000000
 -0.010000  0.110000  0.000000
 -0.010000  0.100000  0.000000
 -0.010000  0.090000  0.000000
 -0.010000  0.080000  0.000000
 -0.010000  0.070000  0.000000
 -0.010000  0.060000  0.000000
 -0.010000  0.050000  0.000000
 -0.010000  0.040000  0.000000
 -0.010000  0.030000  0.000000
 -0.010000  0.020000  0.000000
 -0.010000  0.010000  0.000000
 -0.100000 -0.010000  0.000000
 -0.090000 -0.010000  0.000000
 -0.080000 -0.010000  0.000000
 -0.070000 -0.010000  0.000000
 -0.060000 -0.010000  0.000000
 -0.050000 -0.010000  0.000000
 -0.040000 -0.010000  0.000000
 -0.030000 -0.010000  0.000000
 -0.020000 -0.010000  0.000000
 -0.010000 -0.010000  0.000000
 -0.000000 -0.010000  0.000000
  0.010000 -0.010000  0.000000
  0.020000 -0.010000  0.000000
  0.030000 -0.010000  0.000000
  0.040000 -0.010000  0.000000
  0.050000 -0.010000  0.000000
  0.060000 -0.010000  0.000000
  0.070000 -0.010000  0.000000
  0.080000 -0.010000  0.000000
  0.090000 -0.010000  0.000000
  0.100000 -0.010000  0.000000
  0.110000 -0.010000  0.000000
  0.120000 -0.010000  0.000000
  0.130000 -0.010000  0.000000
  0.140000 -0.010000  0.000000
  0.150000 -0.010000  0.000000
  0.160000 -0.010000  0.000000
  0.170000 -0.010000  0.000000
  0.180000 -0.010000  0.000000
  0.190000 -0.010000  0.000000
  0.200000 -0.010000  0.000000
  0.210000 -0.010000  0.000000