<?xml version="1.0" encoding="UTF-8"?>
<VTKFile type="UnstructuredGrid" version="1.0" byte_order="LittleEndian">
<UnstructuredGrid>
  <Piece NumberOfPoints="1555" NumberOfCells="1555">
      <PointData>
        <DataArray type="Int32" Name="Type" format="ascii">
 1 1 1 1 1 1 1 1 1 1
 1 1 1 1 1 1 1 1 1 1
 1 1 1 1 1 1 1 1 1 1
 1 1 1 1 1 1 1 1 1 1
 1 1 1 1 1 1 1 1 1 1
 1 1 1 1 1 1 1 1 1 1
 1 3 3 3 3 3 3 3 3 3
 3 3 3 3 3 3 3 3 3 3
 3 3 3 3 3 3 3 3 3 3
 3 3 3 3 3 3 3 3 3 3
 3 3 3 3 3 3 3 3 3 3
 3 3 3 3 3 3 3 3 3 3
 3 3 3 3 3 3 3 3 3 3
 1 1 1 1 1 1 1 1 1 1
 1 1 1 1 1 1 1 1 1 1
 1 1 1 1 1 1 1 1 1 1
 1 1 1 1 1 1 1 1 1 1
 1 1 1 1 1 1 1 1 1 1
 1 1 1 1 1 1 1 1 1 1
 1 2 2 2 2 2 2 2 2 2
 2 2 2 2 2 2 2 2 2 2
 2 2 2 2 2 2 2 2 2 2
 2 2 2 2 2 2 2 2 2 2
 2 2 2 2 2 2 2 2 2 2
 2 2 2 2 2 2 2 2 2 2
 2 2 2 2 2 2 2 2 2 2
 2 2 2 2 2 2 2 2 2 2
 2 2 2 2 2 2 2 2 2 2
 2 2 2 2 2 2 2 2 2 2
 2 2 2 2 2 2 2 2 2 2
 2 2 2 2 2 2 2 2 2 2
 2 2 2 2 2 2 2 2 2 2
 2 2 2 2 2 2 2 2 2 2
 2 2 2 2 2 2 2 2 2 2
 2 2 2 2 2 2 2 2 2 2
 2 2 2 2 2 2 2 2 2 2
 2 2 2 2 2 2 2 2 2 2
 2 2 2 2 2 2 2 2 2 2
 2 2 2 2 2 2 2 2 2 2
 2 2 2 2 2 2 2 2 2 2
 2 2 2 2 2 2 2 2 2 2
 2 2 2 2 2 2 2 2 2 2
 2 2 2 2 2 2 2 2 2 2
 2 2 2 2 2 2 2 2 2 2
 2 2 2 2 2 2 2 2 2 2
 2 2 2 2 2 2 2 2 2 2
 2 2 2 2 2 2 2 2 2 2
 2 2 2 2 2 2 2 2 2 2
 2 2 2 2 2 2 2 2 2 2
 2 2 2 2 2 2 2 2 2 2
 2 2 2 2 2 2 2 2 2 2
 2 2 2 2 2 2 2 2 2 2
 2 2 2 2 2 2 2 2 2 2
 2 2 2 2 2 2 2 2 2 2
 2 2 2 2 2 2 2 2 2 2
 2 2 2 2 2 2 2 2 2 2
 2 2 2 2 2 2 2 2 2 2
 2 2 2 2 2 2 2 2 2 2
 2 2 2 2 2 2 2 2 2 2
 2 2 2 2 2 2 2 2 2 2
 2 2 2 2 2 2 2 2 2 2
 2 2 2 2 2 2 2 2 2 2
 2 2 2 2 2 2 2 2 2 2
 2 2 2 2 2 2 2 2 2 2
 2 2 2 2 2 2 2 2 2 2
 2 2 2 2 2 2 2 2 2 2
 2 2 2 2 2 2 2 2 2 2
 2 2 2 2 2 2 2 2 2 2
 2 2 2 2 2 2 2 2 2 2
 2 2 2 2 2 2 2 2 2 2
 2 2 2 2 2 2 2 2 2 2
 2 2 2 2 2 2 2 2 2 2
 2 2 2 2 2 2 2 2 2 2
 2 2 2 2 2 2 2 2 2 2
 2 2 2 2 2 2 2 2 2 2
 2 2 2 2 2 2 2 2 2 2
 2 2 2 2 2 2 2 2 2 2
 2 2 2 2 2 2 2 2 2 2
 2 2 2 2 2 2 2 2 2 2
 2 0 0 0 0 0 0 0 0 0
 0 0 0 0 0 0 0 0 0 0
 0 0 0 0 0 0 0 0 0 0
 0 0 0 0 0 0 0 0 0 0
 0 0 0 0 0 0 0 0 0 0
 0 0 0 0 0 0 0 0 0 0
 0 0 0 0 0 0 0 0 0 0
 0 0 0 0 0 0 0 0 0 0
 0 0 0 0 0 0 0 0 0 0
 0 0 0 0 0 0 0 0 0 0
 0 0 0 0 0 0 0 0 0 0
 0 0 0 0 0 0 0 0 0 0
 0 0 0 0 0 0 0 0 0 0
 0 0 0 0 0 0 0 0 0 0
 0 0 0 0 0 0 0 0 0 0
 0 0 0 0 0 0 0 0 0 0
 0 0 0 0 0 0 0 0 0 0
 0 0 0 0 0 0 0 0 0 0
 0 0 0 0 0 0 0 0 0 0
 0 0 0 0 0 0 0 0 0 0
 0 0 0 0 0 0 0 0 0 0
 0 0 0 0 0 0 0 0 0 0
 0 0 0 0 0 0 0 0 0 0
 0 0 0 0 0 0 0 0 0 0
 0 0 0 0 0 0 0 0 0 0
 0 0 0 0 0 0 0 0 0 0
 0 0 0 0 0 0 0 0 0 0
 0 0 0 0 0 0 0 0 0 0
 0 0 0 0 0 0 0 0 0 0
 0 0 0 0 0 0 0 0 0 0
 0 0 0 0 0 0 0 0 0 0
 0 0 0 0 0 0 0 0 0 0
 0 0 0 0 0 0 0 0 0 0
 0 0 0 0 0 0 0 0 0 0
 0 0 0 0 0 0 0 0 0 0
 0 0 0 0 0 0 0 0 0 0
 0 0 0 0 0 0 0 0 0 0
 0 0 0 0 0 0 0 0 0 0
 0 0 0 0 0 0 0 0 0 0
 0 0 0 0 0 0 0 0 0 0
 0 0 0 0 0 0 0 0 0 0
 0 0 0 0 0 0 0 0 0 0
 0 0 0 0 0 0 0 0 0 0
 0 0 0 0 0 0 0 0 0 0
 0 0 0 0 0 0 0 0 0 0
 0 0 0 0 0 0 0 0 0 0
 0 0 0 0 0 0 0 0 0 0
 0 0 0 0 0 0 0 0 0 0
 0 0 0 0 0 0 0 0 0 0
 0 0 0 0 0 0 0 0 0 0
 0 0 0 0 0 0 0 0 0 0
 0 0 0 0 0 0 0 0 0 0
 0 0 0 0 0 0 0 0 0 0
 0 0 0 0 0 0 0 0 0 0
 0 0 0 0 0 0 0 0 0 0
 0 0 0 0 0 0 0 0 0 0
 0 0 0 0 0 0 0 0 0 0
 0 0 0 0 0 0 0 0 0 0
 0 0 0 0 0 0 0 0 0 0
 0 0 0 0 0 0 0 0 0 0
 0 0 0 0 0 0 0 0 0 0
 0 0 0 0 0 0 0 0 0 0
 0 0 0 0 0 0 0 0 0 0
 0 0 0 0 0 0 0 0 0 0
 0 0 0 0 0 0 0 0 0 0
 0 0 0 0 0 0 0 0 0 0
 0 0 0 0 0 0 0 0 0 0
 0 0 0 0 0 0 0 0 0 0
 0 0 0 0 0 0 0 0 0 0
 0 0 0 0 0 0 0 0 0 0
 0 0 0 0 0 0 0 0 0 0
 0 0 0 0 0 0 0 0 0 0
 0 0 0 0 0 0 0 0 0 0
 0 0 0 0 0 0 0 0 0 0
 0 0 0 0 0 0 0 0 0 0
 0 0 0 0 0 0 0 0 0 0
 0 0 0 0 0
        </DataArray>
      </PointData>
      <Points>
        <DataArray type="Float32" NumberOfComponents="3" format="ascii">
  0.000000  0.500000  0.000000
  0.000000  0.490000  0.000000
  0.000000  0.480000  0.000000
  0.000000  0.470000  0.000000
  0.000000  0.460000  0.000000
  0.000000  0.450000  0.000000
  0.000000  0.440000  0.000000
  0.000000  0.430000  0.000000
  0.000000  0.420000  0.000000
  0.000000  0.410000  0.000000
  0.000000  0.400000  0.000000
  0.000000  0.390000  0.000000
  0.000000  0.380000  0.000000
  0.000000  0.370000  0.000000
  0.000000  0.360000  0.000000
  0.000000  0.350000  0.000000
  0.000000  0.340000  0.000000
  0.000000  0.330000  0.000000
  0.000000  0.320000  0.000000
  0.000000  0.310000  0.000000
  0.000000  0.300000  0.000000
  0.000000  0.290000  0.000000
  0.000000  0.280000  0.000000
  0.000000  0.270000  0.000000
  0.000000  0.260000  0.000000
  0.000000  0.250000  0.000000
  0.000000  0.240000  0.000000
  0.000000  0.230000  0.000000
  0.000000  0.220000  0.000000
  0.000000  0.210000  0.000000
  0.000000  0.200000  0.000000
  0.000000  0.190000  0.000000
  0.000000  0.180000  0.000000
  0.000000  0.170000  0.000000
  0.000000  0.160000  0.000000
  0.000000  0.150000  0.000000
  0.000000  0.140000  0.000000
  0.000000  0.130000  0.000000
  0.000000  0.120000  0.000000
  0.000000  0.110000  0.000000
  0.000000  0.100000  0.000000
  0.000000  0.090000  0.000000
  0.000000  0.080000  0.000000
  0.000000  0.070000  0.000000
  0.000000  0.060000  0.000000
  0.000000  0.050000  0.000000
  0.000000  0.040000  0.000000
  0.000000  0.030000  0.000000
  0.000000  0.020000  0.000000
  0.000000  0.010000  0.000000
 -0.100000  0.000000  0.000000
 -0.090000  0.000000  0.000000
 -0.080000  0.000000  0.000000
 -0.070000  0.000000  0.000000
 -0.060000  0.000000  0.000000
 -0.050000  0.000000  0.000000
 -0.040000  0.000000  0.000000
 -0.030000  0.000000  0.000000
 -0.020000  0.000000  0.000000
 -0.010000  0.000000  0.000000
 -0.000000  0.000000  0.000000
  0.010000  0.000000  0.000000
  0.020000  0.000000  0.000000
  0.030000  0.000000  0.000000
  0.040000  0.000000  0.000000
  0.050000  0.000000  0.000000
  0.060000  0.000000  0.000000
  0.070000  0.000000  0.000000
  0.080000  0.000000  0.000000
  0.090000  0.000000  0.000000
  0.100000  0.000000  0.000000
  0.110000  0.000000  0.000000
  0.120000  0.000000  0.000000
  0.130000  0.000000  0.000000
  0.140000  0.000000  0.000000
  0.150000  0.000000  0.000000
  0.160000  0.000000  0.000000
  0.170000  0.000000  0.000000
  0.180000  0.000000  0.000000
  0.190000  0.000000  0.000000
  0.200000  0.000000  0.000000
  0.210000  0.000000  0.000000
  0.220000  0.000000  0.000000
  0.230000  0.000000  0.000000
  0.240000  0.000000  0.000000
  0.250000  0.000000  0.000000
  0.260000  0.000000  0.000000
  0.270000  0.000000  0.000000
  0.280000  0.000000  0.000000
  0.290000  0.000000  0.000000
  0.300000  0.000000  0.000000
  0.310000  0.000000  0.000000
  0.320000  0.000000  0.000000
  0.330000  0.000000  0.000000
  0.340000  0.000000  0.000000
  0.350000  0.000000  0.000000
  0.360000  0.000000  0.000000
  0.370000  0.000000  0.000000
  0.380000  0.000000  0.000000
  0.390000  0.000000  0.000000
  0.400000  0.000000  0.000000
  0.410000  0.000000  0.000000
  0.420000  0.000000  0.000000
  0.430000  0.000000  0.000000
  0.440000  0.000000  0.000000
  0.450000  0.000000  0.000000
  0.460000  0.000000  0.000000
  0.470000  0.000000  0.000000
  0.480000  0.000000  0.000000
  0.490000  0.000000  0.000000
  0.500000  0.000000  0.000000
  0.510000  0.000000  0.000000
  0.520000  0.000000  0.000000
  0.530000  0.000000  0.000000
  0.540000  0.000000  0.000000
  0.550000  0.000000  0.000000
  0.560000  0.000000  0.000000
  0.570000  0.000000  0.000000
  0.580000  0.000000  0.000000
  0.590000  0.000000  0.000000
  0.600000  0.000000  0.000000
  0.610000  0.000000  0.000000
  0.620000  0.000000  0.000000
  0.630000  0.000000  0.000000
  0.640000  0.000000  0.000000
  0.650000  0.000000  0.000000
  0.660000  0.000000  0.000000
  0.670000  0.000000  0.000000
  0.680000  0.000000  0.000000
  0.690000  0.000000  0.000000
  0.700000  0.000000  0.000000
  0.710000  0.000000  0.000000
  0.720000  0.000000  0.000000
  0.730000  0.000000  0.000000
  0.740000  0.000000  0.000000
  0.750000  0.000000  0.000000
  0.760000  0.000000  0.000000
  0.770000  0.000000  0.000000
  0.780000  0.000000  0.000000
  0.790000  0.000000  0.000000
  0.800000  0.000000  0.000000
  0.700000  0.010000  0.000000
  0.700000  0.020000  0.000000
  0.700000  0.030000  0.000000
  0.700000  0.040000  0.000000
  0.700000  0.050000  0.000000
  0.700000  0.060000  0.000000
  0.700000  0.070000  0.000000
  0.700000  0.080000  0.000000
  0.700000  0.090000  0.000000
  0.700000  0.100000  0.000000
  0.700000  0.110000  0.000000
  0.700000  0.120000  0.000000
  0.700000  0.130000  0.000000
  0.700000  0.140000  0.000000
  0.700000  0.150000  0.000000
  0.700000  0.160000  0.000000
  0.700000  0.170000  0.000000
  0.700000  0.180000  0.000000
  0.700000  0.190000  0.000000
  0.700000  0.200000  0.000000
  0.700000  0.210000  0.000000
  0.700000  0.220000  0.000000
  0.700000  0.230000  0.000000
  0.700000  0.240000  0.000000
  0.700000  0.250000  0.000000
  0.700000  0.260000  0.000000
  0.700000  0.270000  0.000000
  0.700000  0.280000  0.000000
  0.700000  0.290000  0.000000
  0.700000  0.300000  0.000000
  0.700000  0.310000  0.000000
  0.700000  0.320000  0.000000
  0.700000  0.330000  0.000000
  0.700000  0.340000  0.000000
  0.700000  0.350000  0.000000
  0.700000  0.360000  0.000000
  0.700000  0.370000  0.000000
  0.700000  0.380000  0.000000
  0.700000  0.390000  0.000000
  0.700000  0.400000  0.000000
  0.700000  0.410000  0.000000
  0.700000  0.420000  0.000000
  0.700000  0.430000  0.000000
  0.700000  0.440000  0.000000
  0.700000  0.450000  0.000000
  0.700000  0.460000  0.000000
  0.700000  0.470000  0.000000
  0.700000  0.480000  0.000000
  0.700000  0.490000  0.000000
  0.700000  0.500000  0.000000
  0.010688  0.009112  0.000000
  0.010549  0.017808  0.000000
  0.011043  0.026307  0.000000
  0.010718  0.034767  0.000000
  0.010946  0.043249  0.000000
  0.010790  0.051694  0.000000
  0.010798  0.060183  0.000000
  0.010783  0.068733  0.000000
  0.010724  0.077322  0.000000
  0.010706  0.085969  0.000000
  0.010685  0.094681  0.000000
  0.010645  0.103445  0.000000
  0.010596  0.112264  0.000000
  0.010544  0.121144  0.000000
  0.010495  0.130084  0.000000
  0.010453  0.139091  0.000000
  0.010418  0.148165  0.000000
  0.010386  0.157308  0.000000
  0.010357  0.166519  0.000000
  0.010327  0.175794  0.000000
  0.010295  0.185147  0.000000
  0.010265  0.194552  0.000000
  0.010228  0.204038  0.000000
  0.010199  0.213586  0.000000
  0.010167  0.223188  0.000000
  0.010122  0.232885  0.000000
  0.010081  0.242640  0.000000
  0.010097  0.252420  0.000000
  0.009912  0.262277  0.000000
  0.010026  0.272252  0.000000
  0.022636  0.009522  0.000000
  0.022457  0.017449  0.000000
  0.022970  0.026215  0.000000
  0.022830  0.034368  0.000000
  0.022818  0.042940  0.000000
  0.022852  0.051377  0.000000
  0.022720  0.059930  0.000000
  0.022632  0.068456  0.000000
  0.022525  0.077058  0.000000
  0.022399  0.085689  0.000000
  0.022271  0.094385  0.000000
  0.022153  0.103148  0.000000
  0.022035  0.111976  0.000000
  0.021917  0.120873  0.000000
  0.021797  0.129830  0.000000
  0.021672  0.138850  0.000000
  0.021545  0.147936  0.000000
  0.021417  0.157087  0.000000
  0.021290  0.166309  0.000000
  0.021167  0.175590  0.000000
  0.021040  0.184954  0.000000
  0.020922  0.194372  0.000000
  0.020804  0.203858  0.000000
  0.020681  0.213433  0.000000
  0.020580  0.223040  0.000000
  0.020472  0.232729  0.000000
  0.020341  0.242498  0.000000
  0.020225  0.252355  0.000000
  0.020142  0.262189  0.000000
  0.020127  0.272047  0.000000
  0.034393  0.009220  0.000000
  0.034351  0.017510  0.000000
  0.034760  0.025884  0.000000
  0.034724  0.034374  0.000000
  0.034581  0.042698  0.000000
  0.034460  0.051215  0.000000
  0.034355  0.059712  0.000000
  0.034213  0.068286  0.000000
  0.034037  0.076897  0.000000
  0.033853  0.085550  0.000000
  0.033666  0.094267  0.000000
  0.033463  0.103030  0.000000
  0.033256  0.111853  0.000000
  0.033046  0.120743  0.000000
  0.032834  0.129694  0.000000
  0.032623  0.138712  0.000000
  0.032416  0.147800  0.000000
  0.032213  0.156951  0.000000
  0.032012  0.166176  0.000000
  0.031818  0.175461  0.000000
  0.031626  0.184817  0.000000
  0.031433  0.194250  0.000000
  0.031258  0.203723  0.000000
  0.031064  0.213297  0.000000
  0.030881  0.222925  0.000000
  0.030722  0.232597  0.000000
  0.030545  0.242359  0.000000
  0.030378  0.252162  0.000000
  0.030169  0.262089  0.000000
  0.030059  0.272048  0.000000
  0.046447  0.009372  0.000000
  0.046225  0.017244  0.000000
  0.046867  0.025986  0.000000
  0.046529  0.033970  0.000000
  0.046527  0.042729  0.000000
  0.046317  0.050931  0.000000
  0.046167  0.059595  0.000000
  0.045888  0.067998  0.000000
  0.045701  0.076668  0.000000
  0.045424  0.085263  0.000000
  0.045162  0.093984  0.000000
  0.044879  0.102731  0.000000
  0.044599  0.111559  0.000000
  0.044311  0.120446  0.000000
  0.044026  0.129401  0.000000
  0.043739  0.138422  0.000000
  0.043453  0.147515  0.000000
  0.043169  0.156669  0.000000
  0.042886  0.165898  0.000000
  0.042607  0.175194  0.000000
  0.042336  0.184549  0.000000
  0.042059  0.193988  0.000000
  0.041794  0.203487  0.000000
  0.041549  0.213034  0.000000
  0.041272  0.222689  0.000000
  0.041020  0.232386  0.000000
  0.040787  0.242134  0.000000
  0.040542  0.251982  0.000000
  0.040325  0.261849  0.000000
  0.040196  0.271763  0.000000
  0.058527  0.009207  0.000000
  0.058205  0.017265  0.000000
  0.058824  0.025670  0.000000
  0.058531  0.034073  0.000000
  0.058297  0.042309  0.000000
  0.058221  0.050927  0.000000
  0.057819  0.059197  0.000000
  0.057667  0.067854  0.000000
  0.057286  0.076348  0.000000
  0.056976  0.084995  0.000000
  0.056625  0.093684  0.000000
  0.056264  0.102432  0.000000
  0.055894  0.111251  0.000000
  0.055517  0.120135  0.000000
  0.055141  0.129089  0.000000
  0.054762  0.138107  0.000000
  0.054387  0.147203  0.000000
  0.054016  0.156360  0.000000
  0.053651  0.165590  0.000000
  0.053291  0.174893  0.000000
  0.052940  0.184258  0.000000
  0.052599  0.193688  0.000000
  0.052250  0.203203  0.000000
  0.051920  0.212770  0.000000
  0.051614  0.222388  0.000000
  0.051278  0.232107  0.000000
  0.050958  0.241879  0.000000
  0.050665  0.251690  0.000000
  0.050352  0.261609  0.000000
  0.050172  0.271566  0.000000
  0.070675  0.009215  0.000000
  0.070307  0.017158  0.000000
  0.070814  0.025621  0.000000
  0.070483  0.033760  0.000000
  0.070359  0.042326  0.000000
  0.069975  0.050425  0.000000
  0.069799  0.059100  0.000000
  0.069331  0.067419  0.000000
  0.068985  0.076019  0.000000
  0.068573  0.084616  0.000000
  0.068128  0.093276  0.000000
  0.067686  0.102022  0.000000
  0.067226  0.110823  0.000000
  0.066765  0.119707  0.000000
  0.066302  0.128657  0.000000
  0.065841  0.137678  0.000000
  0.065384  0.146777  0.000000
  0.064931  0.155940  0.000000
  0.064487  0.165176  0.000000
  0.064048  0.174484  0.000000
  0.063615  0.183861  0.000000
  0.063196  0.193302  0.000000
  0.062787  0.202808  0.000000
  0.062370  0.212397  0.000000
  0.061970  0.222045  0.000000
  0.061600  0.231738  0.000000
  0.061212  0.241519  0.000000
  0.060823  0.251374  0.000000
  0.060468  0.261258  0.000000
  0.060263  0.271190  0.000000
  0.082877  0.009197  0.000000
  0.082470  0.017125  0.000000
  0.082961  0.025420  0.000000
  0.082542  0.033634  0.000000
  0.082313  0.041866  0.000000
  0.082058  0.050309  0.000000
  0.081559  0.058576  0.000000
  0.081190  0.067060  0.000000
  0.080711  0.075596  0.000000
  0.080185  0.084131  0.000000
  0.079670  0.092809  0.000000
  0.079124  0.101528  0.000000
  0.078571  0.110326  0.000000
  0.078016  0.119207  0.000000
  0.077458  0.128155  0.000000
  0.076904  0.137180  0.000000
  0.076356  0.146282  0.000000
  0.075813  0.155452  0.000000
  0.075281  0.164696  0.000000
  0.074759  0.174011  0.000000
  0.074246  0.183395  0.000000
  0.073742  0.192852  0.000000
  0.073253  0.202371  0.000000
  0.072781  0.211951  0.000000
  0.072304  0.221610  0.000000
  0.071833  0.231337  0.000000
  0.071397  0.241111  0.000000
  0.070966  0.250949  0.000000
  0.070523  0.260879  0.000000
  0.070267  0.270841  0.000000
  0.095188  0.009255  0.000000
  0.094749  0.016940  0.000000
  0.095183  0.025309  0.000000
  0.094732  0.033333  0.000000
  0.094450  0.041627  0.000000
  0.094027  0.049809  0.000000
  0.093582  0.058196  0.000000
  0.093047  0.066580  0.000000
  0.092454  0.075031  0.000000
  0.091866  0.083594  0.000000
  0.091236  0.092230  0.000000
  0.090587  0.100930  0.000000
  0.089937  0.109728  0.000000
  0.089281  0.118600  0.000000
  0.088626  0.127550  0.000000
  0.087979  0.136579  0.000000
  0.087338  0.145687  0.000000
  0.086709  0.154866  0.000000
  0.086091  0.164122  0.000000
  0.085487  0.173448  0.000000
  0.084897  0.182843  0.000000
  0.084319  0.192309  0.000000
  0.083751  0.201845  0.000000
  0.083199  0.211444  0.000000
  0.082668  0.221104  0.000000
  0.082142  0.230832  0.000000
  0.081610  0.240635  0.000000
  0.081100  0.250496  0.000000
  0.080616  0.260401  0.000000
  0.080333  0.270349  0.000000
  0.107648  0.009231  0.000000
  0.107174  0.016752  0.000000
  0.107536  0.025096  0.000000
  0.107026  0.032971  0.000000
  0.106683  0.041212  0.000000
  0.106205  0.049358  0.000000
  0.105603  0.057633  0.000000
  0.104981  0.065968  0.000000
  0.104305  0.074418  0.000000
  0.103588  0.082935  0.000000
  0.102838  0.091539  0.000000
  0.102088  0.100243  0.000000
  0.101327  0.109028  0.000000
  0.100564  0.117898  0.000000
  0.099808  0.126855  0.000000
  0.099061  0.135890  0.000000
  0.098326  0.145008  0.000000
  0.097605  0.154199  0.000000
  0.096898  0.163468  0.000000
  0.096207  0.172809  0.000000
  0.095533  0.182219  0.000000
  0.094875  0.191699  0.000000
  0.094234  0.201246  0.000000
  0.093604  0.210860  0.000000
  0.092988  0.220541  0.000000
  0.092392  0.230281  0.000000
  0.091816  0.240080  0.000000
  0.091242  0.249948  0.000000
  0.090671  0.259892  0.000000
  0.090344  0.269861  0.000000
  0.120262  0.009140  0.000000
  0.119761  0.016556  0.000000
  0.120041  0.024822  0.000000
  0.119486  0.032545  0.000000
  0.119040  0.040748  0.000000
  0.118450  0.048752  0.000000
  0.117762  0.057003  0.000000
  0.117020  0.065279  0.000000
  0.116199  0.073669  0.000000
  0.115358  0.082157  0.000000
  0.114494  0.090748  0.000000
  0.113618  0.099439  0.000000
  0.112734  0.108215  0.000000
  0.111860  0.117090  0.000000
  0.110994  0.126054  0.000000
  0.110141  0.135098  0.000000
  0.109306  0.144231  0.000000
  0.108489  0.153438  0.000000
  0.107693  0.162722  0.000000
  0.106917  0.172081  0.000000
  0.106162  0.181510  0.000000
  0.105427  0.191007  0.000000
  0.104712  0.200572  0.000000
  0.104016  0.210201  0.000000
  0.103335  0.219894  0.000000
  0.102666  0.229653  0.000000
  0.102010  0.239475  0.000000
  0.101375  0.249355  0.000000
  0.100758  0.259287  0.000000
  0.100398  0.269254  0.000000
  0.133068  0.009058  0.000000
  0.132560  0.016370  0.000000
  0.132720  0.024471  0.000000
  0.132128  0.032044  0.000000
  0.131582  0.040166  0.000000
  0.130864  0.048041  0.000000
  0.130027  0.056246  0.000000
  0.129136  0.064437  0.000000
  0.128181  0.072795  0.000000
  0.127200  0.081261  0.000000
  0.126190  0.089829  0.000000
  0.125179  0.098509  0.000000
  0.124169  0.107288  0.000000
  0.123173  0.116172  0.000000
  0.122191  0.125146  0.000000
  0.121230  0.134206  0.000000
  0.120292  0.143358  0.000000
  0.119377  0.152586  0.000000
  0.118488  0.161892  0.000000
  0.117625  0.171273  0.000000
  0.116785  0.180724  0.000000
  0.115969  0.190243  0.000000
  0.115176  0.199827  0.000000
  0.114404  0.209476  0.000000
  0.113652  0.219187  0.000000
  0.112919  0.228958  0.000000
  0.112203  0.238790  0.000000
  0.111498  0.248686  0.000000
  0.110806  0.258648  0.000000
  0.110409  0.268629  0.000000
  0.146182  0.009065  0.000000
  0.145653  0.016064  0.000000
  0.145671  0.024012  0.000000
  0.145000  0.031449  0.000000
  0.144285  0.039475  0.000000
  0.143432  0.047194  0.000000
  0.142449  0.055347  0.000000
  0.141380  0.063460  0.000000
  0.140251  0.071792  0.000000
  0.139107  0.080216  0.000000
  0.137936  0.088767  0.000000
  0.136776  0.097454  0.000000
  0.135627  0.106233  0.000000
  0.134495  0.115131  0.000000
  0.133388  0.124124  0.000000
  0.132311  0.133207  0.000000
  0.131265  0.142383  0.000000
  0.130250  0.151639  0.000000
  0.129268  0.160971  0.000000
  0.128318  0.170379  0.000000
  0.127398  0.179855  0.000000
  0.126506  0.189398  0.000000
  0.125641  0.199007  0.000000
  0.124799  0.208677  0.000000
  0.123979  0.218407  0.000000
  0.123178  0.228200  0.000000
  0.122396  0.238051  0.000000
  0.121632  0.247960  0.000000
  0.120884  0.257923  0.000000
  0.120451  0.267908  0.000000
  0.159681  0.009023  0.000000
  0.159033  0.015666  0.000000
  0.158921  0.023537  0.000000
  0.158189  0.030714  0.000000
  0.157276  0.038589  0.000000
  0.156198  0.046194  0.000000
  0.155001  0.054303  0.000000
  0.153748  0.062301  0.000000
  0.152420  0.070606  0.000000
  0.151077  0.079021  0.000000
  0.149736  0.087554  0.000000
  0.148407  0.096251  0.000000
  0.147100  0.105044  0.000000
  0.145827  0.113960  0.000000
  0.144588  0.122982  0.000000
  0.143388  0.132097  0.000000
  0.142230  0.141304  0.000000
  0.141111  0.150594  0.000000
  0.140032  0.159961  0.000000
  0.138991  0.169402  0.000000
  0.137986  0.178910  0.000000
  0.137016  0.188482  0.000000
  0.136077  0.198117  0.000000
  0.135164  0.207811  0.000000
  0.134278  0.217564  0.000000
  0.133413  0.227375  0.000000
  0.132567  0.237240  0.000000
  0.131740  0.247166  0.000000
  0.130931  0.257154  0.000000
  0.130463  0.267151  0.000000
  0.173710  0.008897  0.000000
  0.172964  0.015120  0.000000
  0.172640  0.022874  0.000000
  0.171652  0.029827  0.000000
  0.170471  0.037594  0.000000
  0.169244  0.044996  0.000000
  0.167784  0.053026  0.000000
  0.166234  0.060995  0.000000
  0.164695  0.069244  0.000000
  0.163137  0.077633  0.000000
  0.161582  0.086176  0.000000
  0.160070  0.094882  0.000000
  0.158586  0.103703  0.000000
  0.157158  0.112656  0.000000
  0.155779  0.121711  0.000000
  0.154450  0.130870  0.000000
  0.153176  0.140120  0.000000
  0.151953  0.149451  0.000000
  0.150780  0.158860  0.000000
  0.149653  0.168340  0.000000
  0.148569  0.177886  0.000000
  0.147524  0.187491  0.000000
  0.146514  0.197157  0.000000
  0.145537  0.206880  0.000000
  0.144585  0.216656  0.000000
  0.143657  0.226488  0.000000
  0.142751  0.236376  0.000000
  0.141861  0.246319  0.000000
  0.140989  0.256312  0.000000
  0.140487  0.266315  0.000000
  0.188315  0.008809  0.000000
  0.187332  0.014615  0.000000
  0.186763  0.022190  0.000000
  0.185660  0.028655  0.000000
  0.184148  0.036298  0.000000
  0.182455  0.043688  0.000000
  0.180746  0.051563  0.000000
  0.178952  0.059389  0.000000
  0.177079  0.067688  0.000000
  0.175270  0.076050  0.000000
  0.173482  0.084601  0.000000
  0.171757  0.093346  0.000000
  0.170087  0.102193  0.000000
  0.168482  0.111205  0.000000
  0.166953  0.120308  0.000000
  0.165489  0.129518  0.000000
  0.164092  0.138827  0.000000
  0.162761  0.148210  0.000000
  0.161489  0.157670  0.000000
  0.160274  0.167196  0.000000
  0.159110  0.176787  0.000000
  0.157992  0.186431  0.000000
  0.156916  0.196133  0.000000
  0.155874  0.205885  0.000000
  0.154862  0.215686  0.000000
  0.153878  0.225542  0.000000
  0.152910  0.235443  0.000000
  0.151964  0.245402  0.000000
  0.151041  0.255420  0.000000
  0.150503  0.265438  0.000000
  0.203868  0.009698  0.000000
  0.203326  0.013556  0.000000
  0.202036  0.021085  0.000000
  0.199947  0.027612  0.000000
  0.198055  0.035019  0.000000
  0.196272  0.041899  0.000000
  0.193984  0.049842  0.000000
  0.191785  0.057637  0.000000
  0.189643  0.065793  0.000000
  0.187492  0.074225  0.000000
  0.185431  0.082783  0.000000
  0.183458  0.091601  0.000000
  0.181580  0.100498  0.000000
  0.179790  0.109578  0.000000
  0.178095  0.118764  0.000000
  0.176494  0.128037  0.000000
  0.174974  0.137419  0.000000
  0.173536  0.146868  0.000000
  0.172170  0.156390  0.000000
  0.170872  0.165972  0.000000
  0.169632  0.175615  0.000000
  0.168447  0.185305  0.000000
  0.167307  0.195045  0.000000
  0.166206  0.204831  0.000000
  0.165138  0.214662  0.000000
  0.164095  0.224538  0.000000
  0.163075  0.234462  0.000000
  0.162071  0.244440  0.000000
  0.161077  0.254460  0.000000
  0.160507  0.264481  0.000000
  0.222607  0.010942  0.000000
  0.221217  0.012132  0.000000
  0.217347  0.021008  0.000000
  0.215230  0.026083  0.000000
  0.213129  0.033093  0.000000
  0.210284  0.040330  0.000000
  0.207691  0.047621  0.000000
  0.204965  0.055482  0.000000
  0.202317  0.063652  0.000000
  0.199822  0.072081  0.000000
  0.197426  0.080719  0.000000
  0.195171  0.089613  0.000000
  0.193047  0.098624  0.000000
  0.191063  0.107774  0.000000
  0.189193  0.117071  0.000000
  0.187444  0.126432  0.000000
  0.185801  0.135900  0.000000
  0.184254  0.145429  0.000000
  0.182796  0.155028  0.000000
  0.181418  0.164674  0.000000
  0.180107  0.174377  0.000000
  0.178861  0.184119  0.000000
  0.177662  0.193902  0.000000
  0.176512  0.203727  0.000000
  0.175392  0.213583  0.000000
  0.174305  0.223485  0.000000
  0.173230  0.233421  0.000000
  0.172169  0.243403  0.000000
  0.171134  0.253449  0.000000
  0.170528  0.263493  0.000000
  0.243495  0.012475  0.000000
  0.238061  0.010024  0.000000
  0.234655  0.019552  0.000000
  0.232667  0.023896  0.000000
  0.228771  0.031424  0.000000
  0.225658  0.037516  0.000000
  0.221869  0.045149  0.000000
  0.218498  0.052731  0.000000
  0.215231  0.061080  0.000000
  0.212231  0.069549  0.000000
  0.209432  0.078345  0.000000
  0.206864  0.087332  0.000000
  0.204467  0.096516  0.000000
  0.202265  0.105786  0.000000
  0.200222  0.115210  0.000000
  0.198322  0.124692  0.000000
  0.196558  0.134269  0.000000
  0.194909  0.143892  0.000000
  0.193363  0.153582  0.000000
  0.191911  0.163304  0.000000
  0.190537  0.173076  0.000000
  0.189233  0.182876  0.000000
  0.187986  0.192711  0.000000
  0.186792  0.202573  0.000000
  0.185628  0.212465  0.000000
  0.184505  0.222386  0.000000
  0.183381  0.232333  0.000000
  0.182286  0.242333  0.000000
  0.181155  0.252368  0.000000
  0.180514  0.262404  0.000000
  0.267525  0.013211  0.000000
  0.258396  0.009025  0.000000
  0.255579  0.016337  0.000000
  0.251358  0.021222  0.000000
  0.246854  0.027704  0.000000
  0.241943  0.034346  0.000000
  0.236937  0.041585  0.000000
  0.232382  0.049593  0.000000
  0.228351  0.057954  0.000000
  0.224708  0.066636  0.000000
  0.221429  0.075650  0.000000
  0.218491  0.084811  0.000000
  0.215811  0.094188  0.000000
  0.213380  0.103634  0.000000
  0.211154  0.113214  0.000000
  0.209113  0.122838  0.000000
  0.207229  0.132545  0.000000
  0.205484  0.142280  0.000000
  0.203861  0.152070  0.000000
  0.202340  0.161883  0.000000
  0.200914  0.171728  0.000000
  0.199559  0.181595  0.000000
  0.198276  0.191486  0.000000
  0.197041  0.201389  0.000000
  0.195854  0.211322  0.000000
  0.194690  0.221251  0.000000
  0.193550  0.231225  0.000000
  0.192403  0.241183  0.000000
  0.191221  0.251206  0.000000
  0.190506  0.261335  0.000000
  0.285898  0.014535  0.000000
  0.282410  0.009210  0.000000
  0.275327  0.017870  0.000000
  0.271196  0.021794  0.000000
  0.264561  0.027404  0.000000
  0.257304  0.033166  0.000000
  0.251067  0.039739  0.000000
  0.245697  0.047686  0.000000
  0.240841  0.056091  0.000000
  0.236659  0.064853  0.000000
  0.232944  0.073990  0.000000
  0.229680  0.083270  0.000000
  0.226759  0.092761  0.000000
  0.224148  0.102320  0.000000
  0.221782  0.112001  0.000000
  0.219632  0.121716  0.000000
  0.217665  0.131501  0.000000
  0.215849  0.141313  0.000000
  0.214174  0.151161  0.000000
  0.212606  0.161032  0.000000
  0.211144  0.170922  0.000000
  0.209758  0.180832  0.000000
  0.208451  0.190755  0.000000
  0.207191  0.200687  0.000000
  0.205990  0.210638  0.000000
  0.204803  0.220584  0.000000
  0.203662  0.230561  0.000000
  0.202486  0.240515  0.000000
  0.201374  0.250487  0.000000
  0.200337  0.260306  0.000000
 -0.010000  0.500000  0.000000
 -0.010000  0.490000  0.000000
 -0.010000  0.480000  0.000000
 -0.010000  0.470000  0.000000
 -0.010000  0.460000  0.000000
 -0.010000  0.450000  0.000000
 -0.010000  0.440000  0.000000
 -0.010000  0.430000  0.000000
 -0.010000  0.420000  0.000000
 -0.010000  0.410000  0.000000
 -0.010000  0.400000  0.000000
 -0.010000  0.390000  0.000000
 -0.010000  0.380000  0.000000
 -0.010000  0.370000  0.000000
 -0.010000  0.360000  0.000000
 -0.010000  0.350000  0.000000
 -0.010000  0.340000  0.000000
 -0.010000  0.330000  0.000000
 -0.010000  0.320000  0.000000
 -0.010000  0.310000  0.000000
 -0.010000  0.300000  0.000000
 -0.010000  0.290000  0.000000
 -0.010000  0.280000  0.000000
 -0.010000  0.270000  0.000000
 -0.010000  0.260000  0.000000
 -0.010000  0.250000  0.000000
 -0.010000  0.240000  0.000000
 -0.010000  0.230000  0.000000
 -0.010000  0.220000  0.000000
 -0.010000  0.210000  0.000000
 -0.010000  0.200000  0.000000
 -0.010000  0.190000  0.000000
 -0.010000  0.180000  0.000000
 -0.010000  0.170000  0.000000
 -0.010000  0.160000  0.000000
 -0.010000  0.150000  0.000000
 -0.010000  0.140000  0.000000
 -0.010000  0.130000  0.000000
 -0.010000  0.120000  0.000000
 -0.010000  0.110000  0.000000
 -0.010000  0.100000  0.000000
 -0.010000  0.090000  0.000000
 -0.010000  0.080000  0.000000
 -0.010000  0.070000  0.000000
 -0.010000  0.060000  0.000000
 -0.010000  0.050000  0.000000
 -0.010000  0.040000  0.000000
 -0.010000  0.030000  0.000000
 -0.010000  0.020000  0.000000
 -0.010000  0.010000  0.000000
 -0.100000 -0.010000  0.000000
 -0.090000 -0.010000  0.000000
 -0.080000 -0.010000  0.000000
 -0.070000 -0.010000  0.000000
 -0.060000 -0.010000  0.000000
 -0.050000 -0.010000  0.000000
 -0.040000 -0.010000  0.000000
 -0.030000 -0.010000  0.000000