<?xml version="1.0" encoding="UTF-8"?>
<VTKFile type="UnstructuredGrid" version="1.0" byte_order="LittleEndian">
<UnstructuredGrid>
  <Piece NumberOfPoints="1555" NumberOfCells="1555">
      <PointData>
        <DataArray type="Int32" Name="Type" format="ascii">
 1 1 1 1 1 1 1 1 1 1
 1 1 1 1 1 1 1 1 1 1
 1 1 1 1 1 1 1 1 1 1
 1 1 1 1 1 1 1 1 1 1
 1 1 1 1 1 1 1 1 1 1
 1 1 1 1 1 1 1 1 1 1
 1 3 3 3 3 3 3 3 3 3
 3 3 3 3 3 3 3 3 3 3
 3 3 3 3 3 3 3 3 3 3
 3 3 3 3 3 3 3 3 3 3
 3 3 3 3 3 3 3 3 3 3
 3 3 3 3 3 3 3 3 3 3
 3 3 3 3 3 3 3 3 3 3
 1 1 1 1 1 1 1 1 1 1
 1 1 1 1 1 1 1 1 1 1
 1 1 1 1 1 1 1 1 1 1
 1 1 1 1 1 1 1 1 1 1
 1 1 1 1 1 1 1 1 1 1
 1 1 1 1 1 1 1 1 1 1
 1 2 2 2 2 2 2 2 2 2
 2 2 2 2 2 2 2 2 2 2
 2 2 2 2 2 2 2 2 2 2
 2 2 2 2 2 2 2 2 2 2
 2 2 2 2 2 2 2 2 2 2
 2 2 2 2 2 2 2 2 2 2
 2 2 2 2 2 2 2 2 2 2
 2 2 2 2 2 2 2 2 2 2
 2 2 2 2 2 2 2 2 2 2
 2 2 2 2 2 2 2 2 2 2
 2 2 2 2 2 2 2 2 2 2
 2 2 2 2 2 2 2 2 2 2
 2 2 2 2 2 2 2 2 2 2
 2 2 2 2 2 2 2 2 2 2
 2 2 2 2 2 2 2 2 2 2
 2 2 2 2 2 2 2 2 2 2
 2 2 2 2 2 2 2 2 2 2
 2 2 2 2 2 2 2 2 2 2
 2 2 2 2 2 2 2 2 2 2
 2 2 2 2 2 2 2 2 2 2
 2 2 2 2 2 2 2 2 2 2
 2 2 2 2 2 2 2 2 2 2
 2 2 2 2 2 2 2 2 2 2
 2 2 2 2 2 2 2 2 2 2
 2 2 2 2 2 2 2 2 2 2
 2 2 2 2 2 2 2 2 2 2
 2 2 2 2 2 2 2 2 2 2
 2 2 2 2 2 2 2 2 2 2
 2 2 2 2 2 2 2 2 2 2
 2 2 2 2 2 2 2 2 2 2
 2 2 2 2 2 2 2 2 2 2
 2 2 2 2 2 2 2 2 2 2
 2 2 2 2 2 2 2 2 2 2
 2 2 2 2 2 2 2 2 2 2
 2 2 2 2 2 2 2 2 2 2
 2 2 2 2 2 2 2 2 2 2
 2 2 2 2 2 2 2 2 2 2
 2 2 2 2 2 2 2 2 2 2
 2 2 2 2 2 2 2 2 2 2
 2 2 2 2 2 2 2 2 2 2
 2 2 2 2 2 2 2 2 2 2
 2 2 2 2 2 2 2 2 2 2
 2 2 2 2 2 2 2 2 2 2
 2 2 2 2 2 2 2 2 2 2
 2 2 2 2 2 2 2 2 2 2
 2 2 2 2 2 2 2 2 2 2
 2 2 2 2 2 2 2 2 2 2
 2 2 2 2 2 2 2 2 2 2
 2 2 2 2 2 2 2 2 2 2
 2 2 2 2 2 2 2 2 2 2
 2 2 2 2 2 2 2 2 2 2
 2 2 2 2 2 2 2 2 2 2
 2 2 2 2 2 2 2 2 2 2
 2 2 2 2 2 2 2 2 2 2
 2 2 2 2 2 2 2 2 2 2
 2 2 2 2 2 2 2 2 2 2
 2 2 2 2 2 2 2 2 2 2
 2 2 2 2 2 2 2 2 2 2
 2 2 2 2 2 2 2 2 2 2
 2 2 2 2 2 2 2 2 2 2
 2 0 0 0 0 0 0 0 0 0
 0 0 0 0 0 0 0 0 0 0
 0 0 0 0 0 0 0 0 0 0
 0 0 0 0 0 0 0 0 0 0
 0 0 0 0 0 0 0 0 0 0
 0 0 0 0 0 0 0 0 0 0
 0 0 0 0 0 0 0 0 0 0
 0 0 0 0 0 0 0 0 0 0
 0 0 0 0 0 0 0 0 0 0
 0 0 0 0 0 0 0 0 0 0
 0 0 0 0 0 0 0 0 0 0
 0 0 0 0 0 0 0 0 0 0
 0 0 0 0 0 0 0 0 0 0
 0 0 0 0 0 0 0 0 0 0
 0 0 0 0 0 0 0 0 0 0
 0 0 0 0 0 0 0 0 0 0
 0 0 0 0 0 0 0 0 0 0
 0 0 0 0 0 0 0 0 0 0
 0 0 0 0 0 0 0 0 0 0
 0 0 0 0 0 0 0 0 0 0
 0 0 0 0 0 0 0 0 0 0
 0 0 0 0 0 0 0 0 0 0
 0 0 0 0 0 0 0 0 0 0
 0 0 0 0 0 0 0 0 0 0
 0 0 0 0 0 0 0 0 0 0
 0 0 0 0 0 0 0 0 0 0
 0 0 0 0 0 0 0 0 0 0
 0 0 0 0 0 0 0 0 0 0
 0 0 0 0 0 0 0 0 0 0
 0 0 0 0 0 0 0 0 0 0
 0 0 0 0 0 0 0 0 0 0
 0 0 0 0 0 0 0 0 0 0
 0 0 0 0 0 0 0 0 0 0
 0 0 0 0 0 0 0 0 0 0
 0 0 0 0 0 0 0 0 0 0
 0 0 0 0 0 0 0 0 0 0
 0 0 0 0 0 0 0 0 0 0
 0 0 0 0 0 0 0 0 0 0
 0 0 0 0 0 0 0 0 0 0
 0 0 0 0 0 0 0 0 0 0
 0 0 0 0 0 0 0 0 0 0
 0 0 0 0 0 0 0 0 0 0
 0 0 0 0 0 0 0 0 0 0
 0 0 0 0 0 0 0 0 0 0
 0 0 0 0 0 0 0 0 0 0
 0 0 0 0 0 0 0 0 0 0
 0 0 0 0 0 0 0 0 0 0
 0 0 0 0 0 0 0 0 0 0
 0 0 0 0 0 0 0 0 0 0
 0 0 0 0 0 0 0 0 0 0
 0 0 0 0 0 0 0 0 0 0
 0 0 0 0 0 0 0 0 0 0
 0 0 0 0 0 0 0 0 0 0
 0 0 0 0 0 0 0 0 0 0
 0 0 0 0 0 0 0 0 0 0
 0 0 0 0 0 0 0 0 0 0
 0 0 0 0 0 0 0 0 0 0
 0 0 0 0 0 0 0 0 0 0
 0 0 0 0 0 0 0 0 0 0
 0 0 0 0 0 0 0 0 0 0
 0 0 0 0 0 0 0 0 0 0
 0 0 0 0 0 0 0 0 0 0
 0 0 0 0 0 0 0 0 0 0
 0 0 0 0 0 0 0 0 0 0
 0 0 0 0 0 0 0 0 0 0
 0 0 0 0 0 0 0 0 0 0
 0 0 0 0 0 0 0 0 0 0
 0 0 0 0 0 0 0 0 0 0
 0 0 0 0 0 0 0 0 0 0
 0 0 0 0 0 0 0 0 0 0
 0 0 0 0 0 0 0 0 0 0
 0 0 0 0 0 0 0 0 0 0
 0 0 0 0 0 0 0 0 0 0
 0 0 0 0 0 0 0 0 0 0
 0 0 0 0 0 0 0 0 0 0
 0 0 0 0 0 0 0 0 0 0
 0 0 0 0 0
        </DataArray>
      </PointData>
      <Points>
        <DataArray type="Float32" NumberOfComponents="3" format="ascii">
  0.000000  0.500000  0.000000
  0.000000  0.490000  0.000000
  0.000000  0.480000  0.000000
  0.000000  0.470000  0.000000
  0.000000  0.460000  0.000000
  0.000000  0.450000  0.000000
  0.000000  0.440000  0.000000
  0.000000  0.430000  0.000000
  0.000000  0.420000  0.000000
  0.000000  0.410000  0.000000
  0.000000  0.400000  0.000000
  0.000000  0.390000  0.000000
  0.000000  0.380000  0.000000
  0.000000  0.370000  0.000000
  0.000000  0.360000  0.000000
  0.000000  0.350000  0.000000
  0.000000  0.340000  0.000000
  0.000000  0.330000  0.000000
  0.000000  0.320000  0.000000
  0.000000  0.310000  0.000000
  0.000000  0.300000  0.000000
  0.000000  0.290000  0.000000
  0.000000  0.280000  0.000000
  0.000000  0.270000  0.000000
  0.000000  0.260000  0.000000
  0.000000  0.250000  0.000000
  0.000000  0.240000  0.000000
  0.000000  0.230000  0.000000
  0.000000  0.220000  0.000000
  0.000000  0.210000  0.000000
  0.000000  0.200000  0.000000
  0.000000  0.190000  0.000000
  0.000000  0.180000  0.000000
  0.000000  0.170000  0.000000
  0.000000  0.160000  0.000000
  0.000000  0.150000  0.000000
  0.000000  0.140000  0.000000
  0.000000  0.130000  0.000000
  0.000000  0.120000  0.000000
  0.000000  0.110000  0.000000
  0.000000  0.100000  0.000000
  0.000000  0.090000  0.000000
  0.000000  0.080000  0.000000
  0.000000  0.070000  0.000000
  0.000000  0.060000  0.000000
  0.000000  0.050000  0.000000
  0.000000  0.040000  0.000000
  0.000000  0.030000  0.000000
  0.000000  0.020000  0.000000
  0.000000  0.010000  0.000000
 -0.100000  0.000000  0.000000
 -0.090000  0.000000  0.000000
 -0.080000  0.000000  0.000000
 -0.070000  0.000000  0.000000
 -0.060000  0.000000  0.000000
 -0.050000  0.000000  0.000000
 -0.040000  0.000000  0.000000
 -0.030000  0.000000  0.000000
 -0.020000  0.000000  0.000000
 -0.010000  0.000000  0.000000
 -0.000000  0.000000  0.000000
  0.010000  0.000000  0.000000
  0.020000  0.000000  0.000000
  0.030000  0.000000  0.000000
  0.040000  0.000000  0.000000
  0.050000  0.000000  0.000000
  0.060000  0.000000  0.000000
  0.070000  0.000000  0.000000
  0.080000  0.000000  0.000000
  0.090000  0.000000  0.000000
  0.100000  0.000000  0.000000
  0.110000  0.000000  0.000000
  0.120000  0.000000  0.000000
  0.130000  0.000000  0.000000
  0.140000  0.000000  0.000000
  0.150000  0.000000  0.000000
  0.160000  0.000000  0.000000
  0.170000  0.000000  0.000000
  0.180000  0.000000  0.000000
  0.190000  0.000000  0.000000
  0.200000  0.000000  0.000000
  0.210000  0.000000  0.000000
  0.220000  0.000000  0.000000
  0.230000  0.000000  0.000000
  0.240000  0.000000  0.000000
  0.250000  0.000000  0.000000
  0.260000  0.000000  0.000000
  0.270000  0.000000  0.000000
  0.280000  0.000000  0.000000
  0.290000  0.000000  0.000000
  0.300000  0.000000  0.000000
  0.310000  0.000000  0.000000
  0.320000  0.000000  0.000000
  0.330000  0.000000  0.000000
  0.340000  0.000000  0.000000
  0.350000  0.000000  0.000000
  0.360000  0.000000  0.000000
  0.370000  0.000000  0.000000
  0.380000  0.000000  0.000000
  0.390000  0.000000  0.000000
  0.400000  0.000000  0.000000
  0.410000  0.000000  0.000000
  0.420000  0.000000  0.000000
  0.430000  0.000000  0.000000
  0.440000  0.000000  0.000000
  0.450000  0.000000  0.000000
  0.460000  0.000000  0.000000
  0.470000  0.000000  0.000000
  0.480000  0.000000  0.000000
  0.490000  0.000000  0.000000
  0.500000  0.000000  0.000000
  0.510000  0.000000  0.000000
  0.520000  0.000000  0.000000
  0.530000  0.000000  0.000000
  0.540000  0.000000  0.000000
  0.550000  0.000000  0.000000
  0.560000  0.000000  0.000000
  0.570000  0.000000  0.000000
  0.580000  0.000000  0.000000
  0.590000  0.000000  0.000000
  0.600000  0.000000  0.000000
  0.610000  0.000000  0.000000
  0.620000  0.000000  0.000000
  0.630000  0.000000  0.000000
  0.640000  0.000000  0.000000
  0.650000  0.000000  0.000000
  0.660000  0.000000  0.000000
  0.670000  0.000000  0.000000
  0.680000  0.000000  0.000000
  0.690000  0.000000  0.000000
  0.700000  0.000000  0.000000
  0.710000  0.000000  0.000000
  0.720000  0.000000  0.000000
  0.730000  0.000000  0.000000
  0.740000  0.000000  0.000000
  0.750000  0.000000  0.000000
  0.760000  0.000000  0.000000
  0.770000  0.000000  0.000000
  0.780000  0.000000  0.000000
  0.790000  0.000000  0.000000
  0.800000  0.000000  0.000000
  0.700000  0.010000  0.000000
  0.700000  0.020000  0.000000
  0.700000  0.030000  0.000000
  0.700000  0.040000  0.000000
  0.700000  0.050000  0.000000
  0.700000  0.060000  0.000000
  0.700000  0.070000  0.000000
  0.700000  0.080000  0.000000
  0.700000  0.090000  0.000000
  0.700000  0.100000  0.000000
  0.700000  0.110000  0.000000
  0.700000  0.120000  0.000000
  0.700000  0.130000  0.000000
  0.700000  0.140000  0.000000
  0.700000  0.150000  0.000000
  0.700000  0.160000  0.000000
  0.700000  0.170000  0.000000
  0.700000  0.180000  0.000000
  0.700000  0.190000  0.000000
  0.700000  0.200000  0.000000
  0.700000  0.210000  0.000000
  0.700000  0.220000  0.000000
  0.700000  0.230000  0.000000
  0.700000  0.240000  0.000000
  0.700000  0.250000  0.000000
  0.700000  0.260000  0.000000
  0.700000  0.270000  0.000000
  0.700000  0.280000  0.000000
  0.700000  0.290000  0.000000
  0.700000  0.300000  0.000000
  0.700000  0.310000  0.000000
  0.700000  0.320000  0.000000
  0.700000  0.330000  0.000000
  0.700000  0.340000  0.000000
  0.700000  0.350000  0.000000
  0.700000  0.360000  0.000000
  0.700000  0.370000  0.000000
  0.700000  0.380000  0.000000
  0.700000  0.390000  0.000000
  0.700000  0.400000  0.000000
  0.700000  0.410000  0.000000
  0.700000  0.420000  0.000000
  0.700000  0.430000  0.000000
  0.700000  0.440000  0.000000
  0.700000  0.450000  0.000000
  0.700000  0.460000  0.000000
  0.700000  0.470000  0.000000
  0.700000  0.480000  0.000000
  0.700000  0.490000  0.000000
  0.700000  0.500000  0.000000
  0.010110  0.009435  0.000000
  0.010468  0.019617  0.000000
  0.025496  0.017017  0.000000
  0.011514  0.026543  0.000000
  0.021527  0.029704  0.000000
  0.010108  0.035842  0.000000
  0.019854  0.041701  0.000000
  0.009601  0.045172  0.000000
  0.016825  0.053124  0.000000
  0.009415  0.057719  0.000000
  0.012133  0.066049  0.000000
  0.011712  0.072880  0.000000
  0.010812  0.080591  0.000000
  0.011247  0.088376  0.000000
  0.011455  0.095883  0.000000
  0.010867  0.103723  0.000000
  0.011223  0.111414  0.000000
  0.011157  0.119212  0.000000
  0.011213  0.127029  0.000000
  0.010984  0.134706  0.000000
  0.010968  0.142601  0.000000
  0.010986  0.150424  0.000000
  0.010860  0.158433  0.000000
  0.011130  0.166352  0.000000
  0.010688  0.174502  0.000000
  0.011284  0.182789  0.000000
  0.010276  0.191066  0.000000
  0.011429  0.199635  0.000000
  0.009671  0.208513  0.000000
  0.012272  0.217204  0.000000
  0.030031  0.008655  0.000000
  0.019401  0.011320  0.000000
  0.038665  0.019429  0.000000
  0.027741  0.025300  0.000000
  0.037772  0.033494  0.000000
  0.028628  0.036738  0.000000
  0.036816  0.044868  0.000000
  0.025768  0.048438  0.000000
  0.031345  0.056597  0.000000
  0.024986  0.061198  0.000000
  0.027088  0.068699  0.000000
  0.025384  0.074632  0.000000
  0.026326  0.082022  0.000000
  0.025111  0.087942  0.000000
  0.025449  0.095586  0.000000
  0.025438  0.101635  0.000000
  0.025269  0.109107  0.000000
  0.025201  0.115645  0.000000
  0.025197  0.122675  0.000000
  0.025139  0.129801  0.000000
  0.025029  0.136974  0.000000
  0.024855  0.144465  0.000000
  0.024568  0.152163  0.000000
  0.024167  0.160237  0.000000
  0.023733  0.168640  0.000000
  0.023247  0.177423  0.000000
  0.022655  0.186553  0.000000
  0.022350  0.195742  0.000000
  0.021698  0.205517  0.000000
  0.021382  0.215523  0.000000
  0.049182  0.008998  0.000000
  0.041438  0.011155  0.000000
  0.053115  0.019739  0.000000
  0.042647  0.024675  0.000000
  0.054160  0.030707  0.000000
  0.046906  0.035459  0.000000
  0.053854  0.043427  0.000000
  0.042662  0.047362  0.000000
  0.047382  0.055317  0.000000
  0.040997  0.060853  0.000000
  0.042503  0.068070  0.000000
  0.041532  0.074110  0.000000
  0.040715  0.080674  0.000000
  0.040680  0.087240  0.000000
  0.040742  0.093792  0.000000
  0.040127  0.100345  0.000000
  0.040109  0.107192  0.000000
  0.039758  0.114116  0.000000
  0.039401  0.121478  0.000000
  0.038680  0.129027  0.000000
  0.037826  0.136992  0.000000
  0.036882  0.145229  0.000000
  0.035877  0.153785  0.000000
  0.035046  0.162519  0.000000
  0.034221  0.171323  0.000000
  0.033691  0.180193  0.000000
  0.032862  0.189085  0.000000
  0.032508  0.198181  0.000000
  0.031846  0.207269  0.000000
  0.031349  0.215872  0.000000
  0.066114  0.009620  0.000000
  0.061256  0.012165  0.000000
  0.071776  0.022380  0.000000
  0.061498  0.022610  0.000000
  0.070943  0.033507  0.000000
  0.063291  0.034248  0.000000
  0.069069  0.043316  0.000000
  0.058804  0.047454  0.000000
  0.063007  0.056815  0.000000
  0.056114  0.060333  0.000000
  0.059217  0.068378  0.000000
  0.056996  0.072890  0.000000
  0.057491  0.080840  0.000000
  0.056401  0.085865  0.000000
  0.056053  0.093432  0.000000
  0.055525  0.099622  0.000000
  0.054487  0.107101  0.000000
  0.053508  0.113991  0.000000
  0.052301  0.121682  0.000000
  0.051281  0.129156  0.000000
  0.050268  0.136998  0.000000
  0.049386  0.144714  0.000000
  0.048563  0.152585  0.000000
  0.047715  0.160524  0.000000
  0.046853  0.168716  0.000000
  0.046002  0.177133  0.000000
  0.045084  0.185939  0.000000
  0.044235  0.194985  0.000000
  0.043209  0.204427  0.000000
  0.042733  0.214220  0.000000
  0.083279  0.010434  0.000000
  0.079105  0.011270  0.000000
  0.088495  0.020167  0.000000
  0.078194  0.023547  0.000000
  0.089147  0.030657  0.000000
  0.084435  0.033806  0.000000
  0.079234  0.042762  0.000000
  0.083024  0.048737  0.000000
  0.072416  0.053194  0.000000
  0.077564  0.059538  0.000000
  0.074368  0.065774  0.000000
  0.073970  0.072254  0.000000
  0.073196  0.078517  0.000000
  0.071974  0.085352  0.000000
  0.071096  0.092044  0.000000
  0.069533  0.098905  0.000000
  0.068461  0.106078  0.000000
  0.067165  0.113200  0.000000
  0.066184  0.120469  0.000000
  0.065031  0.127801  0.000000
  0.063836  0.135356  0.000000
  0.062521  0.143100  0.000000
  0.061090  0.151292  0.000000
  0.059622  0.159768  0.000000
  0.058137  0.168554  0.000000
  0.056755  0.177569  0.000000
  0.055441  0.186643  0.000000
  0.054265  0.195867  0.000000
  0.053254  0.205211  0.000000
  0.052513  0.214075  0.000000
  0.103053  0.011288  0.000000
  0.097043  0.009706  0.000000
  0.105537  0.022399  0.000000
  0.097945  0.021586  0.000000
  0.108518  0.030698  0.000000
  0.099282  0.034745  0.000000
  0.102003  0.042393  0.000000
  0.093586  0.043713  0.000000
  0.096033  0.053375  0.000000
  0.091138  0.057207  0.000000
  0.091681  0.065408  0.000000
  0.089853  0.070275  0.000000
  0.088515  0.077710  0.000000
  0.087202  0.083807  0.000000
  0.085640  0.090905  0.000000
  0.084565  0.097418  0.000000
  0.083144  0.104606  0.000000
  0.081829  0.111420  0.000000
  0.080232  0.118805  0.000000
  0.078549  0.126266  0.000000
  0.076766  0.134080  0.000000
  0.074913  0.142136  0.000000
  0.073180  0.150326  0.000000
  0.071604  0.158584  0.000000
  0.070165  0.166937  0.000000
  0.068828  0.175415  0.000000
  0.067458  0.184210  0.000000
  0.066166  0.193214  0.000000
  0.064754  0.202566  0.000000
  0.064032  0.212189  0.000000
  0.122092  0.010786  0.000000
  0.114500  0.009458  0.000000
  0.124818  0.019461  0.000000
  0.116518  0.021334  0.000000
  0.129642  0.029093  0.000000
  0.119080  0.031336  0.000000
  0.117289  0.038961  0.000000
  0.115371  0.045116  0.000000
  0.108688  0.051204  0.000000
  0.110984  0.057546  0.000000
  0.107120  0.063666  0.000000
  0.105979  0.069600  0.000000
  0.104342  0.076818  0.000000
  0.102714  0.082583  0.000000
  0.101339  0.089588  0.000000
  0.099524  0.096096  0.000000
  0.097823  0.103166  0.000000
  0.095929  0.110033  0.000000
  0.093905  0.117562  0.000000
  0.091925  0.124858  0.000000
  0.089848  0.132683  0.000000
  0.087963  0.140419  0.000000
  0.086087  0.148469  0.000000
  0.084170  0.156749  0.000000
  0.082195  0.165398  0.000000
  0.080187  0.174299  0.000000
  0.078252  0.183431  0.000000
  0.076378  0.192777  0.000000
  0.074782  0.202297  0.000000
  0.073703  0.211430  0.000000
  0.141775  0.013203  0.000000
  0.134700  0.007917  0.000000
  0.145615  0.021056  0.000000
  0.135200  0.019966  0.000000
  0.148720  0.028407  0.000000
  0.136657  0.033074  0.000000
  0.139152  0.038113  0.000000
  0.128470  0.043085  0.000000
  0.130524  0.050131  0.000000
  0.124948  0.054301  0.000000
  0.125127  0.061952  0.000000
  0.122160  0.067647  0.000000
  0.120763  0.074126  0.000000
  0.118926  0.080469  0.000000
  0.116723  0.087400  0.000000
  0.114922  0.093923  0.000000
  0.112740  0.100813  0.000000
  0.110574  0.108008  0.000000
  0.108283  0.115190  0.000000
  0.105954  0.122630  0.000000
  0.103567  0.130321  0.000000
  0.101081  0.138247  0.000000
  0.098544  0.146512  0.000000
  0.096152  0.154923  0.000000
  0.093901  0.163532  0.000000
  0.091846  0.172261  0.000000
  0.089929  0.181192  0.000000
  0.088095  0.190319  0.000000
  0.086240  0.199745  0.000000
  0.085265  0.209259  0.000000
  0.162583  0.010848  0.000000
  0.152832  0.008271  0.000000
  0.167406  0.018430  0.000000
  0.155579  0.018439  0.000000
  0.166712  0.028031  0.000000
  0.159928  0.029324  0.000000
  0.154676  0.037256  0.000000
  0.151502  0.042868  0.000000
  0.143986  0.047685  0.000000
  0.144044  0.054130  0.000000
  0.140928  0.060680  0.000000
  0.139096  0.065899  0.000000
  0.137284  0.073046  0.000000
  0.134268  0.078795  0.000000
  0.132790  0.085742  0.000000
  0.130255  0.091695  0.000000
  0.127858  0.099071  0.000000
  0.125435  0.105714  0.000000
  0.122719  0.112856  0.000000
  0.119870  0.120416  0.000000
  0.116918  0.128096  0.000000
  0.114075  0.136071  0.000000
  0.111391  0.144222  0.000000
  0.108849  0.152606  0.000000
  0.106357  0.161215  0.000000
  0.103805  0.170089  0.000000
  0.101235  0.179285  0.000000
  0.098735  0.188681  0.000000
  0.096460  0.198393  0.000000
  0.094950  0.207759  0.000000
  0.185469  0.009954  0.000000
  0.174427  0.008831  0.000000
  0.189721  0.019270  0.000000
  0.177312  0.017558  0.000000
  0.185697  0.027340  0.000000
  0.179573  0.028085  0.000000
  0.174295  0.037049  0.000000
  0.169457  0.040733  0.000000
  0.163386  0.047064  0.000000
  0.161430  0.052970  0.000000
  0.158768  0.058343  0.000000
  0.156985  0.064669  0.000000
  0.153357  0.070875  0.000000
  0.152193  0.076468  0.000000
  0.149028  0.083204  0.000000
  0.146554  0.089408  0.000000
  0.143867  0.096279  0.000000
  0.140898  0.102696  0.000000
  0.137544  0.110282  0.000000
  0.134289  0.117455  0.000000
  0.130960  0.125207  0.000000
  0.127710  0.133154  0.000000
  0.124514  0.141312  0.000000
  0.121367  0.149788  0.000000
  0.118244  0.158514  0.000000
  0.115326  0.167470  0.000000
  0.112657  0.176645  0.000000
  0.110104  0.186057  0.000000
  0.107723  0.195660  0.000000
  0.106440  0.205204  0.000000
  0.210202  0.010731  0.000000
  0.196509  0.009807  0.000000
  0.212207  0.018689  0.000000
  0.200026  0.015502  0.000000
  0.206102  0.025742  0.000000
  0.200413  0.028548  0.000000
  0.192734  0.034658  0.000000
  0.191045  0.041288  0.000000
  0.181562  0.045347  0.000000
  0.181159  0.050112  0.000000
  0.177292  0.056823  0.000000
  0.174875  0.062514  0.000000
  0.171976  0.068145  0.000000
  0.169305  0.073990  0.000000
  0.166116  0.080658  0.000000
  0.163681  0.086329  0.000000
  0.160085  0.093299  0.000000
  0.156678  0.099757  0.000000
  0.152907  0.107027  0.000000
  0.149077  0.114236  0.000000
  0.145215  0.122015  0.000000
  0.141390  0.129919  0.000000
  0.137672  0.138189  0.000000
  0.134137  0.146741  0.000000
  0.130833  0.155460  0.000000
  0.127621  0.164542  0.000000
  0.124429  0.173892  0.000000
  0.121271  0.183404  0.000000
  0.118199  0.193349  0.000000
  0.116280  0.202887  0.000000
  0.237193  0.009894  0.000000
  0.221885  0.011594  0.000000
  0.237815  0.015099  0.000000
  0.223892  0.014067  0.000000
  0.229560  0.025214  0.000000
  0.221542  0.027830  0.000000
  0.213350  0.032842  0.000000
  0.212499  0.040908  0.000000
  0.202470  0.041736  0.000000
  0.201609  0.047923  0.000000
  0.196775  0.055208  0.000000
  0.194219  0.058992  0.000000
  0.190006  0.065115  0.000000
  0.187773  0.071322  0.000000
  0.184641  0.077159  0.000000
  0.181237  0.083065  0.000000
  0.177254  0.090018  0.000000
  0.173512  0.095981  0.000000
  0.168868  0.103471  0.000000
  0.164477  0.110562  0.000000
  0.159961  0.118375  0.000000
  0.155539  0.126267  0.000000
  0.151371  0.134550  0.000000
  0.147314  0.143044  0.000000
  0.143329  0.151899  0.000000
  0.139510  0.161026  0.000000
  0.135805  0.170436  0.000000
  0.132385  0.180188  0.000000
  0.129299  0.190093  0.000000
  0.127495  0.199926  0.000000
  0.273104  0.010656  0.000000
  0.253879  0.011442  0.000000
  0.260884  0.011202  0.000000
  0.247763  0.015343  0.000000
  0.254551  0.024692  0.000000
  0.243533  0.026033  0.000000
  0.233881  0.029314  0.000000
  0.236004  0.041110  0.000000
  0.224845  0.038287  0.000000
  0.223060  0.044701  0.000000
  0.217951  0.053071  0.000000
  0.214087  0.054990  0.000000
  0.209611  0.062044  0.000000
  0.207466  0.067640  0.000000
  0.203724  0.073343  0.000000
  0.199749  0.079288  0.000000
  0.195523  0.085737  0.000000
  0.190796  0.092045  0.000000
  0.185478  0.099296  0.000000
  0.180363  0.106535  0.000000
  0.175202  0.114238  0.000000
  0.170303  0.122089  0.000000
  0.165478  0.130323  0.000000
  0.160770  0.138925  0.000000
  0.156288  0.147751  0.000000
  0.151966  0.157182  0.000000
  0.147917  0.166684  0.000000
  0.143936  0.176722  0.000000
  0.140127  0.186951  0.000000
  0.137823  0.196629  0.000000
  0.302632  0.010558  0.000000
  0.284841  0.012985  0.000000
  0.288758  0.011060  0.000000
  0.271085  0.015787  0.000000
  0.281201  0.026953  0.000000
  0.268122  0.023394  0.000000
  0.256990  0.029766  0.000000
  0.260693  0.041168  0.000000
  0.246994  0.034877  0.000000
  0.245101  0.041378  0.000000
  0.241200  0.051251  0.000000
  0.234630  0.051764  0.000000
  0.230410  0.058730  0.000000
  0.228264  0.064035  0.000000
  0.223744  0.070287  0.000000
  0.219294  0.074955  0.000000
  0.214401  0.081657  0.000000
  0.208750  0.087909  0.000000
  0.202866  0.094998  0.000000
  0.197032  0.102085  0.000000
  0.191450  0.109736  0.000000
  0.185822  0.117442  0.000000
  0.180316  0.125661  0.000000
  0.174897  0.134236  0.000000
  0.169592  0.143269  0.000000
  0.164579  0.152648  0.000000
  0.159726  0.162407  0.000000
  0.155235  0.172485  0.000000
  0.151054  0.183013  0.000000
  0.148576  0.192849  0.000000
  0.333905  0.013644  0.000000
  0.318679  0.011868  0.000000
  0.322740  0.010299  0.000000
  0.304862  0.013920  0.000000
  0.301478  0.026217  0.000000
  0.294195  0.020152  0.000000
  0.284486  0.026888  0.000000
  0.284089  0.039797  0.000000
  0.268931  0.030585  0.000000
  0.271120  0.038573  0.000000
  0.266155  0.048021  0.000000
  0.256791  0.047927  0.000000
  0.253176  0.054782  0.000000
  0.250783  0.061186  0.000000
  0.245186  0.065698  0.000000
  0.239892  0.070987  0.000000
  0.234573  0.077039  0.000000
  0.227543  0.083813  0.000000
  0.221136  0.090298  0.000000
  0.214579  0.097517  0.000000
  0.208446  0.104875  0.000000
  0.202096  0.112496  0.000000
  0.195881  0.120397  0.000000
  0.189792  0.129027  0.000000
  0.183508  0.137652  0.000000
  0.177853  0.147515  0.000000
  0.172293  0.157244  0.000000
  0.166970  0.167960  0.000000
  0.162222  0.178801  0.000000
  0.159147  0.188773  0.000000
  0.366957  0.012218  0.000000
  0.358053  0.011252  0.000000
  0.341759  0.010509  0.000000
  0.332581  0.022819  0.000000
  0.328896  0.023195  0.000000
  0.312279  0.021102  0.000000
  0.317428  0.026182  0.000000
  0.312357  0.032673  0.000000
  0.294828  0.031641  0.000000
  0.299857  0.039599  0.000000
  0.293678  0.044309  0.000000
  0.280154  0.043755  0.000000
  0.280521  0.053014  0.000000
  0.273829  0.056631  0.000000
  0.268041  0.061550  0.000000
  0.262301  0.065949  0.000000
  0.255446  0.073220  0.000000
  0.247448  0.079026  0.000000
  0.240240  0.085848  0.000000
  0.233271  0.092509  0.000000
  0.226568  0.099983  0.000000
  0.219556  0.107056  0.000000
  0.212824  0.114992  0.000000
  0.205818  0.123282  0.000000
  0.199066  0.131868  0.000000
  0.191890  0.141579  0.000000
  0.184861  0.151759  0.000000
  0.178862  0.162583  0.000000
  0.173313  0.173792  0.000000
  0.170027  0.183805  0.000000
  0.392484  0.012593  0.000000
  0.390706  0.012467  0.000000
  0.378192  0.012321  0.000000
  0.361848  0.018483  0.000000
  0.361513  0.026901  0.000000
  0.348153  0.012864  0.000000
  0.347189  0.023757  0.000000
  0.345205  0.026958  0.000000
  0.325372  0.036403  0.000000
  0.331307  0.038563  0.000000
  0.319085  0.044102  0.000000
  0.309389  0.039285  0.000000
  0.307282  0.051406  0.000000
  0.299122  0.052526  0.000000
  0.292008  0.057942  0.000000
  0.285489  0.062603  0.000000
  0.276017  0.069399  0.000000
  0.268191  0.074952  0.000000
  0.260237  0.081159  0.000000
  0.253130  0.087857  0.000000
  0.245592  0.094829  0.000000
  0.238081  0.101765  0.000000
  0.230497  0.109371  0.000000
  0.223028  0.117397  0.000000
  0.215040  0.125586  0.000000
  0.207640  0.135098  0.000000
  0.198698  0.143907  0.000000
  0.191539  0.156111  0.000000
  0.185025  0.168189  0.000000
  0.180573  0.178388  0.000000
  0.424896  0.012048  0.000000
  0.421958  0.013464  0.000000
  0.408439  0.011584  0.000000
  0.404243  0.012082  0.000000
  0.396216  0.023880  0.000000
  0.376957  0.013929  0.000000
  0.375658  0.027388  0.000000
  0.378498  0.030881  0.000000
  0.362663  0.032340  0.000000
  0.359084  0.038472  0.000000
  0.347326  0.037230  0.000000
  0.340887  0.037313  0.000000
  0.336434  0.046616  0.000000
  0.325806  0.051007  0.000000
  0.317674  0.053834  0.000000
  0.308640  0.060586  0.000000
  0.298510  0.065553  0.000000
  0.290385  0.071180  0.000000
  0.282284  0.077056  0.000000
  0.274169  0.082947  0.000000
  0.265998  0.089924  0.000000
  0.257506  0.096382  0.000000
  0.249530  0.103842  0.000000
  0.241277  0.111475  0.000000
  0.233177  0.119504  0.000000
  0.224635  0.127847  0.000000
  0.215567  0.137305  0.000000
  0.205537  0.147917  0.000000
  0.196434  0.161591  0.000000
  0.192233  0.171029  0.000000
  0.454451  0.011027  0.000000
  0.442318  0.018505  0.000000
  0.440444  0.010327  0.000000
  0.434248  0.017736  0.000000
  0.436248  0.027845  0.000000
  0.414429  0.021464  0.000000
  0.410143  0.031754  0.000000
  0.408101  0.027352  0.000000
  0.395435  0.028112  0.000000
  0.390486  0.033448  0.000000
  0.379860  0.037847  0.000000
  0.372261  0.041520  0.000000
  0.363504  0.048269  0.000000
  0.352345  0.054041  0.000000
  0.344587  0.053032  0.000000
  0.332340  0.059365  0.000000
  0.323014  0.062936  0.000000
  0.314772  0.068075  0.000000
  0.305291  0.073428  0.000000
  0.296425  0.078844  0.000000
  0.286807  0.085104  0.000000
  0.278134  0.091664  0.000000
  0.269189  0.098465  0.000000
  0.260647  0.106089  0.000000
  0.251841  0.113645  0.000000
  0.242924  0.121894  0.000000
  0.234037  0.130547  0.000000
  0.223810  0.139467  0.000000
  0.212064  0.151042  0.000000
  0.201908  0.163921  0.000000
  0.472796  0.010762  0.000000
  0.467856  0.018979  0.000000
  0.462498  0.013262  0.000000
  0.450635  0.016542  0.000000
  0.449251  0.032361  0.000000
  0.436577  0.036264  0.000000
  0.424122  0.025721  0.000000
  0.416159  0.040548  0.000000
  0.421981  0.038400  0.000000
  0.408761  0.046267  0.000000
  0.404916  0.044650  0.000000
  0.394745  0.046732  0.000000
  0.384715  0.049989  0.000000
  0.375398  0.050674  0.000000
  0.362828  0.055129  0.000000
  0.354918  0.058939  0.000000
  0.345204  0.065869  0.000000
  0.335132  0.069324  0.000000
  0.324422  0.073240  0.000000
  0.314342  0.077696  0.000000
  0.305239  0.083291  0.000000
  0.295661  0.089781  0.000000
  0.286185  0.096313  0.000000
  0.276831  0.103343  0.000000
  0.267432  0.110621  0.000000
  0.258037  0.118325  0.000000
  0.248490  0.126238  0.000000
  0.237847  0.135058  0.000000
  0.226924  0.143074  0.000000
  0.214855  0.152750  0.000000
 -0.010000  0.500000  0.000000
 -0.010000  0.490000  0.000000
 -0.010000  0.480000  0.000000
 -0.010000  0.470000  0.000000
 -0.010000  0.460000  0.000000
 -0.010000  0.450000  0.000000
 -0.010000  0.440000  0.000000
 -0.010000  0.430000  0.000000
 -0.010000  0.420000  0.000000
 -0.010000  0.410000  0.000000
 -0.010000  0.400000  0.000000
 -0.010000  0.390000  0.000000
 -0.010000  0.380000  0.000000
 -0.010000  0.370000  0.000000
 -0.010000  0.360000  0.000000
 -0.010000  0.350000  0.000000
 -0.010000  0.340000  0.000000
 -0.010000  0.330000  0.000000
 -0.010000  0.320000  0.000000
 -0.010000  0.310000  0.000000
 -0.010000  0.300000  0.000000
 -0.010000  0.290000  0.000000
 -0.010000  0.280000  0.000000
 -0.010000  0.270000  0.000000
 -0.010000  0.260000  0.000000
 -0.010000  0.250000  0.000000
 -0.010000  0.240000  0.000000
 -0.010000  0.230000  0.000000
 -0.010000  0.220000  0.000000
 -0.010000  0.210000  0.000000
 -0.010000  0.200000  0.000000
 -0.010000  0.190000  0.000000
 -0.010000  0.180000  0.000000
 -0.010000  0.170000  0.000000
 -0.010000  0.160000  0.000000
 -0.010000  0.150000  0.000000
 -0.010000  0.140000  0.000000
 -0.010000  0.130000  0.000000
 -0.010000  0.120000  0.000000
 -0.010000  0.110000  0.000000
 -0.010000  0.100000  0.000000
 -0.010000  0.090000  0.000000
 -0.010000  0.080000  0.000000
 -0.010000  0.070000  0.000000
 -0.010000  0.060000  0.000000
 -0.010000  0.050000  0.000000
 -0.010000  0.040000  0.000000
 -0.010000  0.030000  0.000000
 -0.010000  0.020000  0.000000
 -0.010000  0.010000  0.000000
 -0.100000 -0.010000  0.000000
 -0.090000 -0.010000  0.000000
 -0.080000 -0.010000  0.000000
 -0.070000 -0.010000  0.000000
 -0.060000 -0.010000  0.000000
 -0.050000 -0.010000  0.000000
 -0.040000 -0.010000  0.000000
 -0.030000 -0.010000  0.000000