<?xml version="1.0" encoding="UTF-8"?>
<VTKFile type="UnstructuredGrid" version="1.0" byte_order="LittleEndian">
<UnstructuredGrid>
  <Piece NumberOfPoints="1550" NumberOfCells="1550">
      <PointData>
        <DataArray type="Int32" Name="Type" format="ascii">
 1 1 1 1 1 1 1 1 1 1
 1 1 1 1 1 1 1 1 1 1
 1 1 1 1 1 1 1 1 1 1
 1 1 1 1 1 1 1 1 1 1
 1 1 1 1 1 1 1 1 1 1
 1 1 1 1 1 1 1 1 1 1
 1 3 3 3 3 3 3 3 3 3
 3 3 3 3 3 3 3 3 3 3
 3 3 3 3 3 3 3 3 3 3
 3 3 3 3 3 3 3 3 3 3
 3 3 3 3 3 3 3 3 3 3
 3 3 3 3 3 3 3 3 3 3
 3 3 3 3 3 3 3 3 3 3
 1 1 1 1 1 1 1 1 1 1
 1 1 1 1 1 1 1 1 1 1
 1 1 1 1 1 1 1 1 1 1
 1 1 1 1 1 1 1 1 1 1
 1 1 1 1 1 1 1 1 1 1
 1 1 1 1 1 1 1 1 1 1
 1 2 2 2 2 2 2 2 2 2
 2 2 2 2 2 2 2 2 2 2
 2 2 2 2 2 2 2 2 2 2
 2 2 2 2 2 2 2 2 2 2
 2 2 2 2 2 2 2 2 2 2
 2 2 2 2 2 2 2 2 2 2
 2 2 2 2 2 2 2 2 2 2
 2 2 2 2 2 2 2 2 2 2
 2 2 2 2 2 2 2 2 2 2
 2 2 2 2 2 2 2 2 2 2
 2 2 2 2 2 2 2 2 2 2
 2 2 2 2 2 2 2 2 2 2
 2 2 2 2 2 2 2 2 2 2
 2 2 2 2 2 2 2 2 2 2
 2 2 2 2 2 2 2 2 2 2
 2 2 2 2 2 2 2 2 2 2
 2 2 2 2 2 2 2 2 2 2
 2 2 2 2 2 2 2 2 2 2
 2 2 2 2 2 2 2 2 2 2
 2 2 2 2 2 2 2 2 2 2
 2 2 2 2 2 2 2 2 2 2
 2 2 2 2 2 2 2 2 2 2
 2 2 2 2 2 2 2 2 2 2
 2 2 2 2 2 2 2 2 2 2
 2 2 2 2 2 2 2 2 2 2
 2 2 2 2 2 2 2 2 2 2
 2 2 2 2 2 2 2 2 2 2
 2 2 2 2 2 2 2 2 2 2
 2 2 2 2 2 2 2 2 2 2
 2 2 2 2 2 2 2 2 2 2
 2 2 2 2 2 2 2 2 2 2
 2 2 2 2 2 2 2 2 2 2
 2 2 2 2 2 2 2 2 2 2
 2 2 2 2 2 2 2 2 2 2
 2 2 2 2 2 2 2 2 2 2
 2 2 2 2 2 2 2 2 2 2
 2 2 2 2 2 2 2 2 2 2
 2 2 2 2 2 2 2 2 2 2
 2 2 2 2 2 2 2 2 2 2
 2 2 2 2 2 2 2 2 2 2
 2 2 2 2 2 2 2 2 2 2
 2 2 2 2 2 2 2 2 2 2
 2 2 2 2 2 2 2 2 2 2
 2 2 2 2 2 2 2 2 2 2
 2 2 2 2 2 2 2 2 2 2
 2 2 2 2 2 2 2 2 2 2
 2 2 2 2 2 2 2 2 2 2
 2 2 2 2 2 2 2 2 2 2
 2 2 2 2 2 2 2 2 2 2
 2 2 2 2 2 2 2 2 2 2
 2 2 2 2 2 2 2 2 2 2
 2 2 2 2 2 2 2 2 2 2
 2 2 2 2 2 2 2 2 2 2
 2 2 2 2 2 2 2 2 2 2
 2 2 2 2 2 2 2 2 2 2
 2 2 2 2 2 2 2 2 2 2
 2 2 2 2 2 2 2 2 2 2
 2 2 2 2 2 2 2 2 2 2
 2 2 2 2 2 2 2 2 2 2
 2 2 2 2 2 2 0 0 0 0
 0 0 0 0 0 0 0 0 0 0
 0 0 0 0 0 0 0 0 0 0
 0 0 0 0 0 0 0 0 0 0
 0 0 0 0 0 0 0 0 0 0
 0 0 0 0 0 0 0 0 0 0
 0 0 0 0 0 0 0 0 0 0
 0 0 0 0 0 0 0 0 0 0
 0 0 0 0 0 0 0 0 0 0
 0 0 0 0 0 0 0 0 0 0
 0 0 0 0 0 0 0 0 0 0
 0 0 0 0 0 0 0 0 0 0
 0 0 0 0 0 0 0 0 0 0
 0 0 0 0 0 0 0 0 0 0
 0 0 0 0 0 0 0 0 0 0
 0 0 0 0 0 0 0 0 0 0
 0 0 0 0 0 0 0 0 0 0
 0 0 0 0 0 0 0 0 0 0
 0 0 0 0 0 0 0 0 0 0
 0 0 0 0 0 0 0 0 0 0
 0 0 0 0 0 0 0 0 0 0
 0 0 0 0 0 0 0 0 0 0
 0 0 0 0 0 0 0 0 0 0
 0 0 0 0 0 0 0 0 0 0
 0 0 0 0 0 0 0 0 0 0
 0 0 0 0 0 0 0 0 0 0
 0 0 0 0 0 0 0 0 0 0
 0 0 0 0 0 0 0 0 0 0
 0 0 0 0 0 0 0 0 0 0
 0 0 0 0 0 0 0 0 0 0
 0 0 0 0 0 0 0 0 0 0
 0 0 0 0 0 0 0 0 0 0
 0 0 0 0 0 0 0 0 0 0
 0 0 0 0 0 0 0 0 0 0
 0 0 0 0 0 0 0 0 0 0
 0 0 0 0 0 0 0 0 0 0
 0 0 0 0 0 0 0 0 0 0
 0 0 0 0 0 0 0 0 0 0
 0 0 0 0 0 0 0 0 0 0
 0 0 0 0 0 0 0 0 0 0
 0 0 0 0 0 0 0 0 0 0
 0 0 0 0 0 0 0 0 0 0
 0 0 0 0 0 0 0 0 0 0
 0 0 0 0 0 0 0 0 0 0
 0 0 0 0 0 0 0 0 0 0
 0 0 0 0 0 0 0 0 0 0
 0 0 0 0 0 0 0 0 0 0
 0 0 0 0 0 0 0 0 0 0
 0 0 0 0 0 0 0 0 0 0
 0 0 0 0 0 0 0 0 0 0
 0 0 0 0 0 0 0 0 0 0
 0 0 0 0 0 0 0 0 0 0
 0 0 0 0 0 0 0 0 0 0
 0 0 0 0 0 0 0 0 0 0
 0 0 0 0 0 0 0 0 0 0
 0 0 0 0 0 0 0 0 0 0
 0 0 0 0 0 0 0 0 0 0
 0 0 0 0 0 0 0 0 0 0
 0 0 0 0 0 0 0 0 0 0
 0 0 0 0 0 0 0 0 0 0
 0 0 0 0 0 0 0 0 0 0
 0 0 0 0 0 0 0 0 0 0
 0 0 0 0 0 0 0 0 0 0
 0 0 0 0 0 0 0 0 0 0
 0 0 0 0 0 0 0 0 0 0
 0 0 0 0 0 0 0 0 0 0
 0 0 0 0 0 0 0 0 0 0
 0 0 0 0 0 0 0 0 0 0
 0 0 0 0 0 0 0 0 0 0
 0 0 0 0 0 0 0 0 0 0
 0 0 0 0 0 0 0 0 0 0
 0 0 0 0 0 0 0 0 0 0
 0 0 0 0 0 0 0 0 0 0
 0 0 0 0 0 0 0 0 0 0
 0 0 0 0 0 0 0 0 0 0
 0 0 0 0 0 0 0 0 0 0
 0 0 0 0 0 0 0 0 0 0
        </DataArray>
      </PointData>
      <Points>
        <DataArray type="Float32" NumberOfComponents="3" format="ascii">
  0.000000  0.500000  0.000000
  0.000000  0.490000  0.000000
  0.000000  0.480000  0.000000
  0.000000  0.470000  0.000000
  0.000000  0.460000  0.000000
  0.000000  0.450000  0.000000
  0.000000  0.440000  0.000000
  0.000000  0.430000  0.000000
  0.000000  0.420000  0.000000
  0.000000  0.410000  0.000000
  0.000000  0.400000  0.000000
  0.000000  0.390000  0.000000
  0.000000  0.380000  0.000000
  0.000000  0.370000  0.000000
  0.000000  0.360000  0.000000
  0.000000  0.350000  0.000000
  0.000000  0.340000  0.000000
  0.000000  0.330000  0.000000
  0.000000  0.320000  0.000000
  0.000000  0.310000  0.000000
  0.000000  0.300000  0.000000
  0.000000  0.290000  0.000000
  0.000000  0.280000  0.000000
  0.000000  0.270000  0.000000
  0.000000  0.260000  0.000000
  0.000000  0.250000  0.000000
  0.000000  0.240000  0.000000
  0.000000  0.230000  0.000000
  0.000000  0.220000  0.000000
  0.000000  0.210000  0.000000
  0.000000  0.200000  0.000000
  0.000000  0.190000  0.000000
  0.000000  0.180000  0.000000
  0.000000  0.170000  0.000000
  0.000000  0.160000  0.000000
  0.000000  0.150000  0.000000
  0.000000  0.140000  0.000000
  0.000000  0.130000  0.000000
  0.000000  0.120000  0.000000
  0.000000  0.110000  0.000000
  0.000000  0.100000  0.000000
  0.000000  0.090000  0.000000
  0.000000  0.080000  0.000000
  0.000000  0.070000  0.000000
  0.000000  0.060000  0.000000
  0.000000  0.050000  0.000000
  0.000000  0.040000  0.000000
  0.000000  0.030000  0.000000
  0.000000  0.020000  0.000000
  0.000000  0.010000  0.000000
 -0.100000  0.000000  0.000000
 -0.090000  0.000000  0.000000
 -0.080000  0.000000  0.000000
 -0.070000  0.000000  0.000000
 -0.060000  0.000000  0.000000
 -0.050000  0.000000  0.000000
 -0.040000  0.000000  0.000000
 -0.030000  0.000000  0.000000
 -0.020000  0.000000  0.000000
 -0.010000  0.000000  0.000000
 -0.000000  0.000000  0.000000
  0.010000  0.000000  0.000000
  0.020000  0.000000  0.000000
  0.030000  0.000000  0.000000
  0.040000  0.000000  0.000000
  0.050000  0.000000  0.000000
  0.060000  0.000000  0.000000
  0.070000  0.000000  0.000000
  0.080000  0.000000  0.000000
  0.090000  0.000000  0.000000
  0.100000  0.000000  0.000000
  0.110000  0.000000  0.000000
  0.120000  0.000000  0.000000
  0.130000  0.000000  0.000000
  0.140000  0.000000  0.000000
  0.150000  0.000000  0.000000
  0.160000  0.000000  0.000000
  0.170000  0.000000  0.000000
  0.180000  0.000000  0.000000
  0.190000  0.000000  0.000000
  0.200000  0.000000  0.000000
  0.210000  0.000000  0.000000
  0.220000  0.000000  0.000000
  0.230000  0.000000  0.000000
  0.240000  0.000000  0.000000
  0.250000  0.000000  0.000000
  0.260000  0.000000  0.000000
  0.270000  0.000000  0.000000
  0.280000  0.000000  0.000000
  0.290000  0.000000  0.000000
  0.300000  0.000000  0.000000
  0.310000  0.000000  0.000000
  0.320000  0.000000  0.000000
  0.330000  0.000000  0.000000
  0.340000  0.000000  0.000000
  0.350000  0.000000  0.000000
  0.360000  0.000000  0.000000
  0.370000  0.000000  0.000000
  0.380000  0.000000  0.000000
  0.390000  0.000000  0.000000
  0.400000  0.000000  0.000000
  0.410000  0.000000  0.000000
  0.420000  0.000000  0.000000
  0.430000  0.000000  0.000000
  0.440000  0.000000  0.000000
  0.450000  0.000000  0.000000
  0.460000  0.000000  0.000000
  0.470000  0.000000  0.000000
  0.480000  0.000000  0.000000
  0.490000  0.000000  0.000000
  0.500000  0.000000  0.000000
  0.510000  0.000000  0.000000
  0.520000  0.000000  0.000000
  0.530000  0.000000  0.000000
  0.540000  0.000000  0.000000
  0.550000  0.000000  0.000000
  0.560000  0.000000  0.000000
  0.570000  0.000000  0.000000
  0.580000  0.000000  0.000000
  0.590000  0.000000  0.000000
  0.600000  0.000000  0.000000
  0.610000  0.000000  0.000000
  0.620000  0.000000  0.000000
  0.630000  0.000000  0.000000
  0.640000  0.000000  0.000000
  0.650000  0.000000  0.000000
  0.660000  0.000000  0.000000
  0.670000  0.000000  0.000000
  0.680000  0.000000  0.000000
  0.690000  0.000000  0.000000
  0.700000  0.000000  0.000000
  0.710000  0.000000  0.000000
  0.720000  0.000000  0.000000
  0.730000  0.000000  0.000000
  0.740000  0.000000  0.000000
  0.750000  0.000000  0.000000
  0.760000  0.000000  0.000000
  0.770000  0.000000  0.000000
  0.780000  0.000000  0.000000
  0.790000  0.000000  0.000000
  0.800000  0.000000  0.000000
  0.700000  0.010000  0.000000
  0.700000  0.020000  0.000000
  0.700000  0.030000  0.000000
  0.700000  0.040000  0.000000
  0.700000  0.050000  0.000000
  0.700000  0.060000  0.000000
  0.700000  0.070000  0.000000
  0.700000  0.080000  0.000000
  0.700000  0.090000  0.000000
  0.700000  0.100000  0.000000
  0.700000  0.110000  0.000000
  0.700000  0.120000  0.000000
  0.700000  0.130000  0.000000
  0.700000  0.140000  0.000000
  0.700000  0.150000  0.000000
  0.700000  0.160000  0.000000
  0.700000  0.170000  0.000000
  0.700000  0.180000  0.000000
  0.700000  0.190000  0.000000
  0.700000  0.200000  0.000000
  0.700000  0.210000  0.000000
  0.700000  0.220000  0.000000
  0.700000  0.230000  0.000000
  0.700000  0.240000  0.000000
  0.700000  0.250000  0.000000
  0.700000  0.260000  0.000000
  0.700000  0.270000  0.000000
  0.700000  0.280000  0.000000
  0.700000  0.290000  0.000000
  0.700000  0.300000  0.000000
  0.700000  0.310000  0.000000
  0.700000  0.320000  0.000000
  0.700000  0.330000  0.000000
  0.700000  0.340000  0.000000
  0.700000  0.350000  0.000000
  0.700000  0.360000  0.000000
  0.700000  0.370000  0.000000
  0.700000  0.380000  0.000000
  0.700000  0.390000  0.000000
  0.700000  0.400000  0.000000
  0.700000  0.410000  0.000000
  0.700000  0.420000  0.000000
  0.700000  0.430000  0.000000
  0.700000  0.440000  0.000000
  0.700000  0.450000  0.000000
  0.700000  0.460000  0.000000
  0.700000  0.470000  0.000000
  0.700000  0.480000  0.000000
  0.700000  0.490000  0.000000
  0.700000  0.500000  0.000000
  0.020634  0.010010  0.000000
  0.022327  0.018381  0.000000
  0.038012  0.014439  0.000000
  0.010323  0.009743  0.000000
  0.044999  0.023072  0.000000
  0.010374  0.018858  0.000000
  0.049337  0.027038  0.000000
  0.052951  0.013790  0.000000
  0.084914  0.026541  0.000000
  0.057401  0.029526  0.000000
  0.067454  0.032829  0.000000
  0.009817  0.029086  0.000000
  0.017945  0.041638  0.000000
  0.010523  0.037641  0.000000
  0.010398  0.049399  0.000000
  0.024304  0.048775  0.000000
  0.047585  0.054766  0.000000
  0.011727  0.055994  0.000000
  0.037378  0.063850  0.000000
  0.008199  0.066821  0.000000
  0.019229  0.062788  0.000000
  0.014481  0.076537  0.000000
  0.011638  0.079646  0.000000
  0.016120  0.092874  0.000000
  0.010044  0.090373  0.000000
  0.030940  0.090443  0.000000
  0.006319  0.104885  0.000000
  0.021241  0.103858  0.000000
  0.022005  0.095267  0.000000
  0.037656  0.107304  0.000000
  0.047933  0.008939  0.000000
  0.032394  0.008671  0.000000
  0.064824  0.008191  0.000000
  0.061248  0.017219  0.000000
  0.083161  0.009768  0.000000
  0.089038  0.018225  0.000000
  0.105433  0.008720  0.000000
  0.074605  0.011929  0.000000
  0.076564  0.034163  0.000000
  0.067454  0.023173  0.000000
  0.047571  0.042589  0.000000
  0.032932  0.021412  0.000000
  0.071320  0.043339  0.000000
  0.032141  0.030487  0.000000
  0.058202  0.046297  0.000000
  0.025830  0.034540  0.000000
  0.020039  0.026343  0.000000
  0.036085  0.041727  0.000000
  0.061869  0.054608  0.000000
  0.028937  0.049839  0.000000
  0.061702  0.062577  0.000000
  0.042169  0.051502  0.000000
  0.021939  0.067114  0.000000
  0.036366  0.071031  0.000000
  0.027247  0.081734  0.000000
  0.037945  0.090012  0.000000
  0.029482  0.077745  0.000000
  0.044144  0.080373  0.000000
  0.039656  0.098357  0.000000
  0.053718  0.093334  0.000000
  0.129000  0.011418  0.000000
  0.094042  0.009518  0.000000
  0.117895  0.009821  0.000000
  0.100014  0.019531  0.000000
  0.117822  0.015969  0.000000
  0.148592  0.011212  0.000000
  0.168584  0.015077  0.000000
  0.128713  0.028642  0.000000
  0.102613  0.038460  0.000000
  0.076170  0.020874  0.000000
  0.114355  0.026656  0.000000
  0.106520  0.019139  0.000000
  0.084163  0.045759  0.000000
  0.088782  0.066315  0.000000
  0.106994  0.054786  0.000000
  0.041819  0.035803  0.000000
  0.072021  0.049465  0.000000
  0.058193  0.039153  0.000000
  0.051645  0.062088  0.000000
  0.031247  0.060387  0.000000
  0.073022  0.061745  0.000000
  0.069997  0.073832  0.000000
  0.056101  0.070806  0.000000
  0.047841  0.073343  0.000000
  0.063518  0.081205  0.000000
  0.053597  0.082441  0.000000
  0.057303  0.091630  0.000000
  0.067783  0.106288  0.000000
  0.066731  0.097695  0.000000
  0.046050  0.100647  0.000000
  0.168322  0.008798  0.000000
  0.136847  0.008837  0.000000
  0.181306  0.010692  0.000000
  0.140859  0.019376  0.000000
  0.166259  0.037373  0.000000
  0.155079  0.009879  0.000000
  0.156926  0.030799  0.000000
  0.157855  0.020926  0.000000
  0.140551  0.037671  0.000000
  0.092509  0.029922  0.000000
  0.151803  0.036050  0.000000
  0.101630  0.031474  0.000000
  0.126623  0.038739  0.000000
  0.085505  0.038225  0.000000
  0.085365  0.054743  0.000000
  0.130173  0.021194  0.000000
  0.095712  0.045417  0.000000
  0.111281  0.040162  0.000000
  0.095830  0.052805  0.000000
  0.093332  0.064721  0.000000
  0.121477  0.059791  0.000000
  0.077684  0.061080  0.000000
  0.072308  0.075020  0.000000
  0.104132  0.070720  0.000000
  0.089440  0.076607  0.000000
  0.073880  0.091553  0.000000
  0.088679  0.093938  0.000000
  0.077565  0.087040  0.000000
  0.074237  0.101541  0.000000
  0.088453  0.100606  0.000000
  0.204101  0.010014  0.000000
  0.188373  0.009604  0.000000
  0.197526  0.014487  0.000000
  0.181037  0.020537  0.000000
  0.236183  0.013568  0.000000
  0.175285  0.028099  0.000000
  0.167398  0.023980  0.000000
  0.187812  0.024902  0.000000
  0.149021  0.023786  0.000000
  0.196793  0.033532  0.000000
  0.138793  0.029342  0.000000
  0.178573  0.035917  0.000000
  0.167054  0.042028  0.000000
  0.154809  0.046979  0.000000
  0.164365  0.061466  0.000000
  0.117915  0.030462  0.000000
  0.142233  0.044219  0.000000
  0.121294  0.043901  0.000000
  0.134312  0.062931  0.000000
  0.110885  0.049647  0.000000
  0.104616  0.061812  0.000000
  0.123479  0.054904  0.000000
  0.112167  0.073254  0.000000
  0.083882  0.080961  0.000000
  0.115937  0.079466  0.000000
  0.095586  0.082559  0.000000
  0.101787  0.080839  0.000000
  0.116118  0.099394  0.000000
  0.102216  0.092839  0.000000
  0.094237  0.100270  0.000000
  0.239293  0.012000  0.000000
  0.216754  0.013100  0.000000
  0.267885  0.020711  0.000000
  0.235203  0.028301  0.000000
  0.282864  0.012313  0.000000
  0.243468  0.033882  0.000000
  0.258665  0.012555  0.000000
  0.223635  0.009688  0.000000
  0.227287  0.018885  0.000000
  0.249236  0.023065  0.000000
  0.214320  0.025311  0.000000
  0.224896  0.026638  0.000000
  0.209842  0.018415  0.000000
  0.181764  0.044049  0.000000
  0.165879  0.053361  0.000000
  0.179427  0.049981  0.000000
  0.131670  0.047902  0.000000
  0.191259  0.049338  0.000000
  0.139416  0.053278  0.000000
  0.156440  0.050309  0.000000
  0.144188  0.059605  0.000000
  0.151343  0.064320  0.000000
  0.120704  0.068610  0.000000
  0.141503  0.070811  0.000000
  0.136934  0.082489  0.000000
  0.129045  0.069966  0.000000
  0.127302  0.082661  0.000000
  0.125948  0.083062  0.000000
  0.111036  0.090298  0.000000
  0.123406  0.101738  0.000000
  0.302155  0.011431  0.000000
  0.252333  0.009937  0.000000
  0.267343  0.011977  0.000000
  0.248073  0.020365  0.000000
  0.337998  0.022243  0.000000
  0.294097  0.010799  0.000000
  0.314896  0.010798  0.000000
  0.277535  0.011506  0.000000
  0.273595  0.025185  0.000000
  0.264024  0.032179  0.000000
  0.259742  0.029833  0.000000
  0.269173  0.042425  0.000000
  0.231774  0.035526  0.000000
  0.197987  0.021930  0.000000
  0.207160  0.031704  0.000000
  0.190480  0.034613  0.000000
  0.197329  0.046863  0.000000
  0.214700  0.044807  0.000000
  0.184679  0.058874  0.000000
  0.172887  0.059772  0.000000
  0.189764  0.062758  0.000000
  0.168463  0.070752  0.000000
  0.152041  0.070124  0.000000
  0.167140  0.075975  0.000000
  0.150417  0.078862  0.000000
  0.159326  0.083030  0.000000
  0.149949  0.101015  0.000000
  0.145577  0.085985  0.000000
  0.143283  0.095755  0.000000
  0.140681  0.093176  0.000000
  0.328703  0.017804  0.000000
  0.320089  0.013365  0.000000
  0.374243  0.027475  0.000000
  0.332495  0.008939  0.000000
  0.393154  0.027264  0.000000
  0.357768  0.010710  0.000000
  0.353719  0.024753  0.000000
  0.332936  0.029759  0.000000
  0.340924  0.014568  0.000000
  0.320326  0.025073  0.000000
  0.304096  0.018037  0.000000
  0.289432  0.020657  0.000000
  0.287646  0.025674  0.000000
  0.247047  0.038377  0.000000
  0.258743  0.049504  0.000000
  0.218398  0.035997  0.000000
  0.205559  0.039610  0.000000
  0.245256  0.050498  0.000000
  0.224749  0.042841  0.000000
  0.237215  0.044795  0.000000
  0.203705  0.060259  0.000000
  0.205279  0.052354  0.000000
  0.209333  0.063970  0.000000
  0.177874  0.070088  0.000000
  0.194342  0.067470  0.000000
  0.186856  0.077443  0.000000
  0.183039  0.081149  0.000000
  0.170828  0.086006  0.000000
  0.166676  0.093433  0.000000
  0.171395  0.097417  0.000000
  0.400286  0.010952  0.000000
  0.380175  0.010213  0.000000
  0.410392  0.011414  0.000000
  0.382532  0.013585  0.000000
  0.424604  0.026194  0.000000
  0.394183  0.013630  0.000000
  0.411159  0.035065  0.000000
  0.363430  0.016804  0.000000
  0.367263  0.011946  0.000000
  0.362527  0.029549  0.000000
  0.320267  0.035567  0.000000
  0.327769  0.035294  0.000000
  0.309358  0.041588  0.000000
  0.313431  0.024331  0.000000
  0.302498  0.026744  0.000000
  0.257843  0.040506  0.000000
  0.280236  0.030730  0.000000
  0.267929  0.052215  0.000000
  0.281363  0.053419  0.000000
  0.249995  0.052666  0.000000
  0.233110  0.055807  0.000000
  0.225587  0.052329  0.000000
  0.223294  0.064250  0.000000
  0.215853  0.054918  0.000000
  0.223290  0.067411  0.000000
  0.203609  0.075252  0.000000
  0.199013  0.077739  0.000000
  0.195402  0.087534  0.000000
  0.204773  0.091821  0.000000
  0.183840  0.088541  0.000000
  0.480395  0.014616  0.000000
  0.413185  0.019728  0.000000
  0.489987  0.009844  0.000000
  0.455940  0.017916  0.000000
  0.499690  0.027755  0.000000
  0.456260  0.014104  0.000000
  0.492342  0.022350  0.000000
  0.436520  0.023795  0.000000
  0.406468  0.032075  0.000000
  0.376784  0.021692  0.000000
  0.381084  0.032758  0.000000
  0.368241  0.040561  0.000000
  0.302550  0.034287  0.000000
  0.348204  0.012405  0.000000
  0.350346  0.025756  0.000000
  0.344298  0.036064  0.000000
  0.296757  0.046085  0.000000
  0.295636  0.035921  0.000000
  0.292434  0.048524  0.000000
  0.277005  0.042695  0.000000
  0.283403  0.039040  0.000000
  0.261365  0.062962  0.000000
  0.271369  0.059602  0.000000
  0.240198  0.061454  0.000000
  0.258553  0.078093  0.000000
  0.242425  0.072681  0.000000
  0.237276  0.067561  0.000000
  0.222651  0.078747  0.000000
  0.212795  0.074558  0.000000
  0.219159  0.086678  0.000000
  0.516168  0.017341  0.000000
  0.475467  0.029321  0.000000
  0.569388  0.012421  0.000000
  0.506316  0.010840  0.000000
  0.550258  0.010835  0.000000
  0.493055  0.014695  0.000000
  0.525125  0.010581  0.000000
  0.511261  0.012093  0.000000
  0.470482  0.020183  0.000000
  0.437366  0.010154  0.000000
  0.464296  0.010456  0.000000
  0.400563  0.020324  0.000000
  0.418179  0.027366  0.000000
  0.426531  0.043507  0.000000
  0.407677  0.049485  0.000000
  0.361581  0.037860  0.000000
  0.352433  0.042261  0.000000
  0.339654  0.039181  0.000000
  0.335571  0.050331  0.000000
  0.320589  0.053333  0.000000
  0.318473  0.065117  0.000000
  0.304465  0.057526  0.000000
  0.284962  0.056713  0.000000
  0.287193  0.079798  0.000000
  0.255664  0.064552  0.000000
  0.255207  0.072816  0.000000
  0.268215  0.089247  0.000000
  0.236465  0.088032  0.000000
  0.239663  0.078606  0.000000
  0.222137  0.084343  0.000000
  0.619231  0.015051  0.000000
  0.577425  0.013268  0.000000
  0.622805  0.017657  0.000000
  0.602353  0.010278  0.000000
  0.610920  0.010222  0.000000
  0.587448  0.014268  0.000000
  0.560224  0.013817  0.000000
  0.533426  0.011674  0.000000
  0.541189  0.013621  0.000000
  0.521728  0.028827  0.000000
  0.505783  0.024344  0.000000
  0.473970  0.011684  0.000000
  0.463881  0.027818  0.000000
  0.450566  0.028690  0.000000
  0.426829  0.012969  0.000000
  0.417431  0.041483  0.000000
  0.399785  0.044684  0.000000
  0.396760  0.035642  0.000000
  0.394901  0.050966  0.000000
  0.388516  0.049416  0.000000
  0.350288  0.046163  0.000000
  0.369658  0.051362  0.000000
  0.316636  0.043479  0.000000
  0.327647  0.050611  0.000000
  0.308830  0.051618  0.000000
  0.290832  0.063976  0.000000
  0.274005  0.088234  0.000000
  0.275579  0.070191  0.000000
  0.271656  0.070636  0.000000
  0.253056  0.083642  0.000000
  0.671501  0.013620  0.000000
  0.654662  0.049733  0.000000
  0.655775  0.029890  0.000000
  0.642859  0.017648  0.000000
  0.649709  0.034789  0.000000
  0.636491  0.020532  0.000000
  0.608918  0.028662  0.000000
  0.606873  0.026120  0.000000
  0.599436  0.017056  0.000000
  0.571312  0.020996  0.000000
  0.553380  0.019790  0.000000
  0.527434  0.019809  0.000000
  0.512501  0.030663  0.000000
  0.530346  0.044725  0.000000
  0.460371  0.037353  0.000000
  0.472909  0.052635  0.000000
  0.446556  0.022719  0.000000
  0.438173  0.013705  0.000000
  0.419820  0.012505  0.000000
  0.467599  0.042854  0.000000
  0.430411  0.034642  0.000000
  0.410063  0.059865  0.000000
  0.386637  0.031332  0.000000
  0.361108  0.057846  0.000000
  0.355073  0.059967  0.000000
  0.328627  0.063343  0.000000
  0.312978  0.069309  0.000000
  0.299277  0.062592  0.000000
  0.295464  0.072983  0.000000
  0.279298  0.076852  0.000000
  0.679457  0.043057  0.000000
  0.670962  0.042839  0.000000
  0.671973  0.023076  0.000000
  0.659981  0.022358  0.000000
  0.667616  0.111909  0.000000
  0.654382  0.010496  0.000000
  0.646060  0.041270  0.000000
  0.658140  0.053199  0.000000
  0.635468  0.045336  0.000000
  0.649109  0.054607  0.000000
  0.632614  0.030218  0.000000
  0.601207  0.034054  0.000000
  0.580140  0.023831  0.000000
  0.603903  0.053632  0.000000
  0.559470  0.025266  0.000000
  0.542761  0.023542  0.000000
  0.547084  0.055559  0.000000
  0.499597  0.038959  0.000000
  0.520486  0.036894  0.000000
  0.484120  0.027495  0.000000
  0.455136  0.037596  0.000000
  0.437922  0.032128  0.000000
  0.438280  0.055359  0.000000
  0.392964  0.071079  0.000000
  0.383833  0.054204  0.000000
  0.375005  0.068786  0.000000
  0.338810  0.055576  0.000000
  0.334181  0.076498  0.000000
  0.314800  0.072818  0.000000
  0.303039  0.074487  0.000000
  0.689788  0.035073  0.000000
  0.681043  0.119517  0.000000
  0.673859  0.079125  0.000000
  0.688829  0.077047  0.000000
  0.688330  0.112507  0.000000
  0.684599  0.029841  0.000000
  0.666913  0.010272  0.000000
  0.656912  0.089774  0.000000
  0.652944  0.067886  0.000000
  0.665109  0.031506  0.000000
  0.668088  0.072176  0.000000
  0.639200  0.009111  0.000000
  0.653114  0.014900  0.000000
  0.643950  0.028658  0.000000
  0.591442  0.019600  0.000000
  0.616324  0.046001  0.000000
  0.587764  0.035261  0.000000
  0.557161  0.032768  0.000000
  0.556785  0.039235  0.000000
  0.535526  0.026503  0.000000
  0.532807  0.034168  0.000000
  0.489104  0.036690  0.000000
  0.462395  0.071207  0.000000
  0.445528  0.042850  0.000000
  0.423574  0.048620  0.000000
  0.435680  0.062564  0.000000
  0.375737  0.042864  0.000000
  0.371828  0.055211  0.000000
  0.344672  0.058249  0.000000
  0.332341  0.071099  0.000000
  0.689352  0.059169  0.000000
  0.687351  0.012583  0.000000
  0.684717  0.132700  0.000000
  0.687110  0.215548  0.000000
  0.689402  0.020990  0.000000
  0.683449  0.011324  0.000000
  0.666475  0.137920  0.000000
  0.683046  0.142348  0.000000
  0.676280  0.026880  0.000000
  0.688901  0.057682  0.000000
  0.685431  0.099742  0.000000
  0.677581  0.053550  0.000000
  0.678738  0.064151  0.000000
  0.662803  0.112175  0.000000
  0.653490  0.105009  0.000000
  0.649734  0.067841  0.000000
  0.644075  0.068647  0.000000
  0.626650  0.013062  0.000000
  0.617098  0.035864  0.000000
  0.590599  0.042981  0.000000
  0.592588  0.029980  0.000000
  0.543114  0.036816  0.000000
  0.525541  0.051506  0.000000
  0.530644  0.059700  0.000000
  0.477457  0.047025  0.000000
  0.461703  0.059436  0.000000
  0.440347  0.043237  0.000000
  0.404232  0.069477  0.000000
  0.386215  0.062402  0.000000
  0.352972  0.065121  0.000000
  0.673529  0.202337  0.000000
  0.638751  0.251838  0.000000
  0.687006  0.092496  0.000000
  0.662801  0.168946  0.000000
  0.606187  0.296531  0.000000
  0.679432  0.155084  0.000000
  0.686725  0.168088  0.000000
  0.682423  0.186384  0.000000
  0.680096  0.242767  0.000000
  0.666561  0.165531  0.000000
  0.682958  0.075321  0.000000
  0.689220  0.107008  0.000000
  0.670777  0.126006  0.000000
  0.645932  0.121934  0.000000
  0.673366  0.096804  0.000000
  0.674457  0.112757  0.000000
  0.670222  0.080092  0.000000
  0.667822  0.061046  0.000000
  0.653960  0.091314  0.000000
  0.639399  0.047786  0.000000
  0.618952  0.060758  0.000000
  0.603856  0.044704  0.000000
  0.575095  0.031596  0.000000
  0.579667  0.044197  0.000000
  0.514893  0.041699  0.000000
  0.496075  0.062862  0.000000
  0.474514  0.035872  0.000000
  0.462263  0.053205  0.000000
  0.410037  0.056424  0.000000
  0.370065  0.069093  0.000000
  0.675430  0.160928  0.000000
  0.585253  0.366320  0.000000
  0.676997  0.218699  0.000000
  0.684886  0.126344  0.000000
  0.675424  0.232535  0.000000
  0.688316  0.084535  0.000000
  0.687152  0.042413  0.000000
  0.682317  0.199657  0.000000
  0.664758  0.226532  0.000000
  0.689157  0.259383  0.000000
  0.625272  0.212890  0.000000
  0.660091  0.145390  0.000000
  0.633492  0.208909  0.000000
  0.658311  0.195458  0.000000
  0.685657  0.144863  0.000000
  0.667670  0.172588  0.000000
  0.670268  0.145093  0.000000
  0.657813  0.140914  0.000000
  0.668070  0.056129  0.000000
  0.668941  0.127933  0.000000
  0.657808  0.123903  0.000000
  0.644277  0.091165  0.000000
  0.628880  0.053817  0.000000
  0.629803  0.033495  0.000000
  0.590980  0.051960  0.000000
  0.565256  0.036652  0.000000
  0.536815  0.045919  0.000000
  0.498077  0.040664  0.000000
  0.449200  0.050807  0.000000
  0.425520  0.058336  0.000000
  0.588740  0.364360  0.000000
  0.652596  0.333011  0.000000
  0.685962  0.190509  0.000000
  0.556465  0.494852  0.000000
  0.676529  0.404873  0.000000
  0.566611  0.371287  0.000000
  0.650204  0.432199  0.000000
  0.643825  0.251671  0.000000
  0.650569  0.342789  0.000000
  0.628507  0.393787  0.000000
  0.648066  0.317867  0.000000
  0.669960  0.290994  0.000000
  0.672587  0.305236  0.000000
  0.638124  0.225292  0.000000
  0.665648  0.187573  0.000000
  0.659836  0.239039  0.000000
  0.689863  0.181912  0.000000
  0.691124  0.229222  0.000000
  0.644735  0.151645  0.000000
  0.645556  0.164932  0.000000
  0.638907  0.131392  0.000000
  0.667011  0.040492  0.000000
  0.673857  0.099527  0.000000
  0.631909  0.059473  0.000000
  0.634531  0.062957  0.000000
  0.622040  0.036130  0.000000
  0.577307  0.042879  0.000000
  0.545909  0.045155  0.000000
  0.493631  0.051344  0.000000
  0.485020  0.059181  0.000000
  0.598518  0.346009  0.000000
  0.463211  0.489784  0.000000
  0.623333  0.388450  0.000000
  0.647475  0.429068  0.000000
  0.667850  0.480327  0.000000
  0.669403  0.372022  0.000000
  0.562545  0.358247  0.000000
  0.662267  0.333444  0.000000
  0.673736  0.356322  0.000000
  0.673276  0.316516  0.000000
  0.645609  0.241921  0.000000
  0.687956  0.282862  0.000000
  0.636305  0.231222  0.000000
  0.633865  0.209429  0.000000
  0.657114  0.215255  0.000000
  0.661115  0.188740  0.000000
  0.654575  0.183313  0.000000
  0.652571  0.151184  0.000000
  0.655290  0.101581  0.000000
  0.659592  0.081298  0.000000
  0.642117  0.078882  0.000000
  0.613024  0.049781  0.000000
  0.556376  0.050955  0.000000
  0.567206  0.051133  0.000000
  0.497651  0.053564  0.000000
 -0.010000  0.500000  0.000000
 -0.010000  0.490000  0.000000
 -0.010000  0.480000  0.000000
 -0.010000  0.470000  0.000000
 -0.010000  0.460000  0.000000
 -0.010000  0.450000  0.000000
 -0.010000  0.440000  0.000000
 -0.010000  0.430000  0.000000
 -0.010000  0.420000  0.000000
 -0.010000  0.410000  0.000000
 -0.010000  0.400000  0.000000
 -0.010000  0.390000  0.000000
 -0.010000  0.380000  0.000000
 -0.010000  0.370000  0.000000
 -0.010000  0.360000  0.000000
 -0.010000  0.350000  0.000000
 -0.010000  0.340000  0.000000
 -0.010000  0.330000  0.000000
 -0.010000  0.320000  0.000000
 -0.010000  0.310000  0.000000
 -0.010000  0.300000  0.000000
 -0.010000  0.290000  0.000000
 -0.010000  0.280000  0.000000
 -0.010000  0.270000  0.000000
 -0.010000  0.260000  0.000000
 -0.010000  0.250000  0.000000
 -0.010000  0.240000  0.000000
 -0.010000  0.230000  0.000000
 -0.010000  0.220000  0.000000
 -0.010000  0.210000  0.000000
 -0.010000  0.200000  0.000000
 -0.010000  0.190000  0.000000
 -0.010000  0.180000  0.000000
 -0.010000  0.170000  0.000000
 -0.010000  0.160000  0.000000
 -0.010000  0.150000  0.000000
 -0.010000  0.140000  0.000000
 -0.010000  0.130000  0.000000
 -0.010000  0.120000  0.000000
 -0.010000  0.110000  0.000000
 -0.010000  0.100000  0.000000
 -0.010000  0.090000  0.000000
 -0.010000  0.080000  0.000000
 -0.010000  0.070000  0.000000
 -0.010000  0.060000  0.000000
 -0.010000  0.050000  0.000000
 -0.010000  0.040000  0.000000
 -0.010000  0.030000  0.000000
 -0.010000  0.020000  0.000000
 -0.010000  0.010000  0.000000
 -0.100000 -0.010000  0.000000
 -0.090000 -0.010000  0.000000
 -0.080000 -0.010000  0.000000
 -0.070000 -0.010000  0.000000
 -0.060000 -0.010000  0.000000
 -0.050000 -0.010000  0.000000
 -0.040000 -0.010000  0.000000
 -0.030000 -0.010000  0.000000
 -0.020000 -0.010000  0.000000
 -0.010000 -0.010000  0.000000
 -0.000000 -0.010000  0.000000
  0.010000 -0.010000  0.000000
  0.020000 -0.010000  0.000000
  0.030000 -0.010000  0.000000