<?xml version="1.0" encoding="UTF-8"?>
<VTKFile type="UnstructuredGrid" version="1.0" byte_order="LittleEndian">
<UnstructuredGrid>
  <Piece NumberOfPoints="1554" NumberOfCells="1554">
      <PointData>
        <DataArray type="Int32" Name="Type" format="ascii">
 1 1 1 1 1 1 1 1 1 1
 1 1 1 1 1 1 1 1 1 1
 1 1 1 1 1 1 1 1 1 1
 1 1 1 1 1 1 1 1 1 1
 1 1 1 1 1 1 1 1 1 1
 1 1 1 1 1 1 1 1 1 1
 1 3 3 3 3 3 3 3 3 3
 3 3 3 3 3 3 3 3 3 3
 3 3 3 3 3 3 3 3 3 3
 3 3 3 3 3 3 3 3 3 3
 3 3 3 3 3 3 3 3 3 3
 3 3 3 3 3 3 3 3 3 3
 3 3 3 3 3 3 3 3 3 3
 1 1 1 1 1 1 1 1 1 1
 1 1 1 1 1 1 1 1 1 1
 1 1 1 1 1 1 1 1 1 1
 1 1 1 1 1 1 1 1 1 1
 1 1 1 1 1 1 1 1 1 1
 1 1 1 1 1 1 1 1 1 1
 1 2 2 2 2 2 2 2 2 2
 2 2 2 2 2 2 2 2 2 2
 2 2 2 2 2 2 2 2 2 2
 2 2 2 2 2 2 2 2 2 2
 2 2 2 2 2 2 2 2 2 2
 2 2 2 2 2 2 2 2 2 2
 2 2 2 2 2 2 2 2 2 2
 2 2 2 2 2 2 2 2 2 2
 2 2 2 2 2 2 2 2 2 2
 2 2 2 2 2 2 2 2 2 2
 2 2 2 2 2 2 2 2 2 2
 2 2 2 2 2 2 2 2 2 2
 2 2 2 2 2 2 2 2 2 2
 2 2 2 2 2 2 2 2 2 2
 2 2 2 2 2 2 2 2 2 2
 2 2 2 2 2 2 2 2 2 2
 2 2 2 2 2 2 2 2 2 2
 2 2 2 2 2 2 2 2 2 2
 2 2 2 2 2 2 2 2 2 2
 2 2 2 2 2 2 2 2 2 2
 2 2 2 2 2 2 2 2 2 2
 2 2 2 2 2 2 2 2 2 2
 2 2 2 2 2 2 2 2 2 2
 2 2 2 2 2 2 2 2 2 2
 2 2 2 2 2 2 2 2 2 2
 2 2 2 2 2 2 2 2 2 2
 2 2 2 2 2 2 2 2 2 2
 2 2 2 2 2 2 2 2 2 2
 2 2 2 2 2 2 2 2 2 2
 2 2 2 2 2 2 2 2 2 2
 2 2 2 2 2 2 2 2 2 2
 2 2 2 2 2 2 2 2 2 2
 2 2 2 2 2 2 2 2 2 2
 2 2 2 2 2 2 2 2 2 2
 2 2 2 2 2 2 2 2 2 2
 2 2 2 2 2 2 2 2 2 2
 2 2 2 2 2 2 2 2 2 2
 2 2 2 2 2 2 2 2 2 2
 2 2 2 2 2 2 2 2 2 2
 2 2 2 2 2 2 2 2 2 2
 2 2 2 2 2 2 2 2 2 2
 2 2 2 2 2 2 2 2 2 2
 2 2 2 2 2 2 2 2 2 2
 2 2 2 2 2 2 2 2 2 2
 2 2 2 2 2 2 2 2 2 2
 2 2 2 2 2 2 2 2 2 2
 2 2 2 2 2 2 2 2 2 2
 2 2 2 2 2 2 2 2 2 2
 2 2 2 2 2 2 2 2 2 2
 2 2 2 2 2 2 2 2 2 2
 2 2 2 2 2 2 2 2 2 2
 2 2 2 2 2 2 2 2 2 2
 2 2 2 2 2 2 2 2 2 2
 2 2 2 2 2 2 2 2 2 2
 2 2 2 2 2 2 2 2 2 2
 2 2 2 2 2 2 2 2 2 2
 2 2 2 2 2 2 2 2 2 2
 2 2 2 2 2 2 2 2 2 2
 2 2 2 2 2 2 2 2 2 2
 2 2 2 2 2 2 2 2 2 2
 0 0 0 0 0 0 0 0 0 0
 0 0 0 0 0 0 0 0 0 0
 0 0 0 0 0 0 0 0 0 0
 0 0 0 0 0 0 0 0 0 0
 0 0 0 0 0 0 0 0 0 0
 0 0 0 0 0 0 0 0 0 0
 0 0 0 0 0 0 0 0 0 0
 0 0 0 0 0 0 0 0 0 0
 0 0 0 0 0 0 0 0 0 0
 0 0 0 0 0 0 0 0 0 0
 0 0 0 0 0 0 0 0 0 0
 0 0 0 0 0 0 0 0 0 0
 0 0 0 0 0 0 0 0 0 0
 0 0 0 0 0 0 0 0 0 0
 0 0 0 0 0 0 0 0 0 0
 0 0 0 0 0 0 0 0 0 0
 0 0 0 0 0 0 0 0 0 0
 0 0 0 0 0 0 0 0 0 0
 0 0 0 0 0 0 0 0 0 0
 0 0 0 0 0 0 0 0 0 0
 0 0 0 0 0 0 0 0 0 0
 0 0 0 0 0 0 0 0 0 0
 0 0 0 0 0 0 0 0 0 0
 0 0 0 0 0 0 0 0 0 0
 0 0 0 0 0 0 0 0 0 0
 0 0 0 0 0 0 0 0 0 0
 0 0 0 0 0 0 0 0 0 0
 0 0 0 0 0 0 0 0 0 0
 0 0 0 0 0 0 0 0 0 0
 0 0 0 0 0 0 0 0 0 0
 0 0 0 0 0 0 0 0 0 0
 0 0 0 0 0 0 0 0 0 0
 0 0 0 0 0 0 0 0 0 0
 0 0 0 0 0 0 0 0 0 0
 0 0 0 0 0 0 0 0 0 0
 0 0 0 0 0 0 0 0 0 0
 0 0 0 0 0 0 0 0 0 0
 0 0 0 0 0 0 0 0 0 0
 0 0 0 0 0 0 0 0 0 0
 0 0 0 0 0 0 0 0 0 0
 0 0 0 0 0 0 0 0 0 0
 0 0 0 0 0 0 0 0 0 0
 0 0 0 0 0 0 0 0 0 0
 0 0 0 0 0 0 0 0 0 0
 0 0 0 0 0 0 0 0 0 0
 0 0 0 0 0 0 0 0 0 0
 0 0 0 0 0 0 0 0 0 0
 0 0 0 0 0 0 0 0 0 0
 0 0 0 0 0 0 0 0 0 0
 0 0 0 0 0 0 0 0 0 0
 0 0 0 0 0 0 0 0 0 0
 0 0 0 0 0 0 0 0 0 0
 0 0 0 0 0 0 0 0 0 0
 0 0 0 0 0 0 0 0 0 0
 0 0 0 0 0 0 0 0 0 0
 0 0 0 0 0 0 0 0 0 0
 0 0 0 0 0 0 0 0 0 0
 0 0 0 0 0 0 0 0 0 0
 0 0 0 0 0 0 0 0 0 0
 0 0 0 0 0 0 0 0 0 0
 0 0 0 0 0 0 0 0 0 0
 0 0 0 0 0 0 0 0 0 0
 0 0 0 0 0 0 0 0 0 0
 0 0 0 0 0 0 0 0 0 0
 0 0 0 0 0 0 0 0 0 0
 0 0 0 0 0 0 0 0 0 0
 0 0 0 0 0 0 0 0 0 0
 0 0 0 0 0 0 0 0 0 0
 0 0 0 0 0 0 0 0 0 0
 0 0 0 0 0 0 0 0 0 0
 0 0 0 0 0 0 0 0 0 0
 0 0 0 0 0 0 0 0 0 0
 0 0 0 0 0 0 0 0 0 0
 0 0 0 0 0 0 0 0 0 0
 0 0 0 0 0 0 0 0 0 0
 0 0 0 0 0 0 0 0 0 0
 0 0 0 0
        </DataArray>
      </PointData>
      <Points>
        <DataArray type="Float32" NumberOfComponents="3" format="ascii">
  0.000000  0.500000  0.000000
  0.000000  0.490000  0.000000
  0.000000  0.480000  0.000000
  0.000000  0.470000  0.000000
  0.000000  0.460000  0.000000
  0.000000  0.450000  0.000000
  0.000000  0.440000  0.000000
  0.000000  0.430000  0.000000
  0.000000  0.420000  0.000000
  0.000000  0.410000  0.000000
  0.000000  0.400000  0.000000
  0.000000  0.390000  0.000000
  0.000000  0.380000  0.000000
  0.000000  0.370000  0.000000
  0.000000  0.360000  0.000000
  0.000000  0.350000  0.000000
  0.000000  0.340000  0.000000
  0.000000  0.330000  0.000000
  0.000000  0.320000  0.000000
  0.000000  0.310000  0.000000
  0.000000  0.300000  0.000000
  0.000000  0.290000  0.000000
  0.000000  0.280000  0.000000
  0.000000  0.270000  0.000000
  0.000000  0.260000  0.000000
  0.000000  0.250000  0.000000
  0.000000  0.240000  0.000000
  0.000000  0.230000  0.000000
  0.000000  0.220000  0.000000
  0.000000  0.210000  0.000000
  0.000000  0.200000  0.000000
  0.000000  0.190000  0.000000
  0.000000  0.180000  0.000000
  0.000000  0.170000  0.000000
  0.000000  0.160000  0.000000
  0.000000  0.150000  0.000000
  0.000000  0.140000  0.000000
  0.000000  0.130000  0.000000
  0.000000  0.120000  0.000000
  0.000000  0.110000  0.000000
  0.000000  0.100000  0.000000
  0.000000  0.090000  0.000000
  0.000000  0.080000  0.000000
  0.000000  0.070000  0.000000
  0.000000  0.060000  0.000000
  0.000000  0.050000  0.000000
  0.000000  0.040000  0.000000
  0.000000  0.030000  0.000000
  0.000000  0.020000  0.000000
  0.000000  0.010000  0.000000
 -0.100000  0.000000  0.000000
 -0.090000  0.000000  0.000000
 -0.080000  0.000000  0.000000
 -0.070000  0.000000  0.000000
 -0.060000  0.000000  0.000000
 -0.050000  0.000000  0.000000
 -0.040000  0.000000  0.000000
 -0.030000  0.000000  0.000000
 -0.020000  0.000000  0.000000
 -0.010000  0.000000  0.000000
 -0.000000  0.000000  0.000000
  0.010000  0.000000  0.000000
  0.020000  0.000000  0.000000
  0.030000  0.000000  0.000000
  0.040000  0.000000  0.000000
  0.050000  0.000000  0.000000
  0.060000  0.000000  0.000000
  0.070000  0.000000  0.000000
  0.080000  0.000000  0.000000
  0.090000  0.000000  0.000000
  0.100000  0.000000  0.000000
  0.110000  0.000000  0.000000
  0.120000  0.000000  0.000000
  0.130000  0.000000  0.000000
  0.140000  0.000000  0.000000
  0.150000  0.000000  0.000000
  0.160000  0.000000  0.000000
  0.170000  0.000000  0.000000
  0.180000  0.000000  0.000000
  0.190000  0.000000  0.000000
  0.200000  0.000000  0.000000
  0.210000  0.000000  0.000000
  0.220000  0.000000  0.000000
  0.230000  0.000000  0.000000
  0.240000  0.000000  0.000000
  0.250000  0.000000  0.000000
  0.260000  0.000000  0.000000
  0.270000  0.000000  0.000000
  0.280000  0.000000  0.000000
  0.290000  0.000000  0.000000
  0.300000  0.000000  0.000000
  0.310000  0.000000  0.000000
  0.320000  0.000000  0.000000
  0.330000  0.000000  0.000000
  0.340000  0.000000  0.000000
  0.350000  0.000000  0.000000
  0.360000  0.000000  0.000000
  0.370000  0.000000  0.000000
  0.380000  0.000000  0.000000
  0.390000  0.000000  0.000000
  0.400000  0.000000  0.000000
  0.410000  0.000000  0.000000
  0.420000  0.000000  0.000000
  0.430000  0.000000  0.000000
  0.440000  0.000000  0.000000
  0.450000  0.000000  0.000000
  0.460000  0.000000  0.000000
  0.470000  0.000000  0.000000
  0.480000  0.000000  0.000000
  0.490000  0.000000  0.000000
  0.500000  0.000000  0.000000
  0.510000  0.000000  0.000000
  0.520000  0.000000  0.000000
  0.530000  0.000000  0.000000
  0.540000  0.000000  0.000000
  0.550000  0.000000  0.000000
  0.560000  0.000000  0.000000
  0.570000  0.000000  0.000000
  0.580000  0.000000  0.000000
  0.590000  0.000000  0.000000
  0.600000  0.000000  0.000000
  0.610000  0.000000  0.000000
  0.620000  0.000000  0.000000
  0.630000  0.000000  0.000000
  0.640000  0.000000  0.000000
  0.650000  0.000000  0.000000
  0.660000  0.000000  0.000000
  0.670000  0.000000  0.000000
  0.680000  0.000000  0.000000
  0.690000  0.000000  0.000000
  0.700000  0.000000  0.000000
  0.710000  0.000000  0.000000
  0.720000  0.000000  0.000000
  0.730000  0.000000  0.000000
  0.740000  0.000000  0.000000
  0.750000  0.000000  0.000000
  0.760000  0.000000  0.000000
  0.770000  0.000000  0.000000
  0.780000  0.000000  0.000000
  0.790000  0.000000  0.000000
  0.800000  0.000000  0.000000
  0.700000  0.010000  0.000000
  0.700000  0.020000  0.000000
  0.700000  0.030000  0.000000
  0.700000  0.040000  0.000000
  0.700000  0.050000  0.000000
  0.700000  0.060000  0.000000
  0.700000  0.070000  0.000000
  0.700000  0.080000  0.000000
  0.700000  0.090000  0.000000
  0.700000  0.100000  0.000000
  0.700000  0.110000  0.000000
  0.700000  0.120000  0.000000
  0.700000  0.130000  0.000000
  0.700000  0.140000  0.000000
  0.700000  0.150000  0.000000
  0.700000  0.160000  0.000000
  0.700000  0.170000  0.000000
  0.700000  0.180000  0.000000
  0.700000  0.190000  0.000000
  0.700000  0.200000  0.000000
  0.700000  0.210000  0.000000
  0.700000  0.220000  0.000000
  0.700000  0.230000  0.000000
  0.700000  0.240000  0.000000
  0.700000  0.250000  0.000000
  0.700000  0.260000  0.000000
  0.700000  0.270000  0.000000
  0.700000  0.280000  0.000000
  0.700000  0.290000  0.000000
  0.700000  0.300000  0.000000
  0.700000  0.310000  0.000000
  0.700000  0.320000  0.000000
  0.700000  0.330000  0.000000
  0.700000  0.340000  0.000000
  0.700000  0.350000  0.000000
  0.700000  0.360000  0.000000
  0.700000  0.370000  0.000000
  0.700000  0.380000  0.000000
  0.700000  0.390000  0.000000
  0.700000  0.400000  0.000000
  0.700000  0.410000  0.000000
  0.700000  0.420000  0.000000
  0.700000  0.430000  0.000000
  0.700000  0.440000  0.000000
  0.700000  0.450000  0.000000
  0.700000  0.460000  0.000000
  0.700000  0.470000  0.000000
  0.700000  0.480000  0.000000
  0.700000  0.490000  0.000000
  0.700000  0.500000  0.000000
  0.019695  0.010456  0.000000
  0.020550  0.020156  0.000000
  0.035529  0.014738  0.000000
  0.009671  0.010103  0.000000
  0.033685  0.022595  0.000000
  0.010915  0.019679  0.000000
  0.038003  0.030366  0.000000
  0.044726  0.018290  0.000000
  0.063452  0.026069  0.000000
  0.043300  0.034193  0.000000
  0.051053  0.037591  0.000000
  0.008632  0.030423  0.000000
  0.011543  0.041701  0.000000
  0.010933  0.047089  0.000000
  0.009655  0.058259  0.000000
  0.023215  0.053769  0.000000
  0.039021  0.059430  0.000000
  0.012751  0.063159  0.000000
  0.027829  0.078885  0.000000
  0.008798  0.074539  0.000000
  0.016787  0.074356  0.000000
  0.010647  0.085545  0.000000
  0.009158  0.095114  0.000000
  0.016491  0.105273  0.000000
  0.009581  0.106175  0.000000
  0.022909  0.111775  0.000000
  0.009871  0.119932  0.000000
  0.020583  0.122745  0.000000
  0.016484  0.121589  0.000000
  0.029718  0.121512  0.000000
  0.045531  0.008464  0.000000
  0.029406  0.008965  0.000000
  0.056605  0.009946  0.000000
  0.053339  0.020082  0.000000
  0.070150  0.009403  0.000000
  0.075167  0.020553  0.000000
  0.090964  0.014706  0.000000
  0.064716  0.014011  0.000000
  0.061212  0.041116  0.000000
  0.054191  0.028041  0.000000
  0.043855  0.049284  0.000000
  0.023628  0.028351  0.000000
  0.062425  0.044557  0.000000
  0.030797  0.037942  0.000000
  0.054271  0.058988  0.000000
  0.023327  0.046007  0.000000
  0.017918  0.031969  0.000000
  0.034719  0.056486  0.000000
  0.050119  0.060736  0.000000
  0.024349  0.063173  0.000000
  0.051251  0.075209  0.000000
  0.038170  0.072697  0.000000
  0.021727  0.084050  0.000000
  0.037229  0.085074  0.000000
  0.021152  0.092432  0.000000
  0.035770  0.100962  0.000000
  0.023409  0.097861  0.000000
  0.035725  0.102142  0.000000
  0.032500  0.112517  0.000000
  0.042846  0.117044  0.000000
  0.105978  0.011494  0.000000
  0.082742  0.008472  0.000000
  0.096560  0.009712  0.000000
  0.081915  0.019403  0.000000
  0.104312  0.022774  0.000000
  0.124964  0.013477  0.000000
  0.138792  0.021280  0.000000
  0.108171  0.037776  0.000000
  0.089573  0.045329  0.000000
  0.069061  0.029312  0.000000
  0.092461  0.033504  0.000000
  0.092932  0.025328  0.000000
  0.070268  0.051235  0.000000
  0.074711  0.068117  0.000000
  0.086973  0.059876  0.000000
  0.031487  0.044246  0.000000
  0.063290  0.061096  0.000000
  0.049536  0.047617  0.000000
  0.044268  0.073616  0.000000
  0.027323  0.068949  0.000000
  0.062060  0.070335  0.000000
  0.060792  0.081921  0.000000
  0.050680  0.086089  0.000000
  0.039498  0.086933  0.000000
  0.056870  0.094981  0.000000
  0.047234  0.097549  0.000000
  0.050969  0.103565  0.000000
  0.057050  0.110335  0.000000
  0.051522  0.114915  0.000000
  0.043272  0.121914  0.000000
  0.144364  0.009466  0.000000
  0.114418  0.009283  0.000000
  0.144265  0.015842  0.000000
  0.112440  0.019779  0.000000
  0.135791  0.038664  0.000000
  0.129950  0.008689  0.000000
  0.136702  0.032105  0.000000
  0.130211  0.020637  0.000000
  0.119500  0.041099  0.000000
  0.082996  0.030195  0.000000
  0.126393  0.040519  0.000000
  0.079459  0.040528  0.000000
  0.109763  0.045579  0.000000
  0.074311  0.037614  0.000000
  0.071743  0.056332  0.000000
  0.104011  0.029946  0.000000
  0.083148  0.051146  0.000000
  0.095980  0.054572  0.000000
  0.082597  0.064241  0.000000
  0.079271  0.077416  0.000000
  0.098825  0.073081  0.000000
  0.066784  0.075455  0.000000
  0.063812  0.090251  0.000000
  0.085742  0.079854  0.000000
  0.074447  0.089596  0.000000
  0.067618  0.101512  0.000000
  0.077040  0.104798  0.000000
  0.069923  0.107152  0.000000
  0.066610  0.120355  0.000000
  0.073975  0.117200  0.000000
  0.173104  0.009041  0.000000
  0.156994  0.008534  0.000000
  0.171011  0.014960  0.000000
  0.158232  0.015469  0.000000
  0.193767  0.010955  0.000000
  0.154468  0.024685  0.000000
  0.145906  0.030848  0.000000
  0.162422  0.024025  0.000000
  0.120534  0.026038  0.000000
  0.162484  0.035819  0.000000
  0.121084  0.030414  0.000000
  0.151523  0.036033  0.000000
  0.142338  0.046990  0.000000
  0.129786  0.052832  0.000000
  0.138296  0.065586  0.000000
  0.097348  0.041698  0.000000
  0.124370  0.052770  0.000000
  0.106483  0.050864  0.000000
  0.115877  0.074552  0.000000
  0.101506  0.060298  0.000000
  0.091556  0.073222  0.000000
  0.103589  0.068860  0.000000
  0.096216  0.086380  0.000000
  0.076859  0.088399  0.000000
  0.097176  0.089520  0.000000
  0.086965  0.098844  0.000000
  0.089618  0.096038  0.000000
  0.092091  0.110443  0.000000
  0.086951  0.110080  0.000000
  0.083578  0.120702  0.000000
  0.203224  0.011281  0.000000
  0.185905  0.009581  0.000000
  0.222815  0.021934  0.000000
  0.197890  0.021932  0.000000
  0.242949  0.012337  0.000000
  0.205214  0.029997  0.000000
  0.221247  0.010812  0.000000
  0.181022  0.018785  0.000000
  0.190328  0.023795  0.000000
  0.212947  0.030441  0.000000
  0.185236  0.032036  0.000000
  0.194162  0.034632  0.000000
  0.175876  0.025645  0.000000
  0.153537  0.045794  0.000000
  0.141904  0.051801  0.000000
  0.148579  0.058763  0.000000
  0.117315  0.060653  0.000000
  0.161540  0.057489  0.000000
  0.113855  0.062615  0.000000
  0.133221  0.062807  0.000000
  0.125158  0.069309  0.000000
  0.129521  0.076855  0.000000
  0.109652  0.081715  0.000000
  0.119197  0.082081  0.000000
  0.116720  0.094825  0.000000
  0.109259  0.089162  0.000000
  0.108590  0.101076  0.000000
  0.107049  0.104450  0.000000
  0.101038  0.110103  0.000000
  0.105521  0.116670  0.000000
  0.258358  0.010915  0.000000
  0.213820  0.013085  0.000000
  0.230763  0.011066  0.000000
  0.208414  0.018537  0.000000
  0.286927  0.025338  0.000000
  0.247822  0.012203  0.000000
  0.263027  0.015569  0.000000
  0.234406  0.018424  0.000000
  0.229460  0.025538  0.000000
  0.229213  0.033693  0.000000
  0.215821  0.034962  0.000000
  0.224771  0.044039  0.000000
  0.196455  0.040298  0.000000
  0.170162  0.031340  0.000000
  0.176067  0.040631  0.000000
  0.160918  0.045667  0.000000
  0.166181  0.053638  0.000000
  0.179283  0.055615  0.000000
  0.156239  0.065410  0.000000
  0.148408  0.069607  0.000000
  0.162515  0.072002  0.000000
  0.142921  0.077715  0.000000
  0.134573  0.082087  0.000000
  0.141520  0.089310  0.000000
  0.127383  0.091170  0.000000
  0.137572  0.094584  0.000000
  0.129158  0.103644  0.000000
  0.124529  0.100181  0.000000
  0.122415  0.115279  0.000000
  0.115911  0.115597  0.000000
  0.277610  0.016077  0.000000
  0.269995  0.011246  0.000000
  0.323756  0.024677  0.000000
  0.282290  0.011025  0.000000
  0.333027  0.025788  0.000000
  0.301451  0.011287  0.000000
  0.302593  0.028453  0.000000
  0.278941  0.026323  0.000000
  0.292269  0.011854  0.000000
  0.267541  0.026591  0.000000
  0.252710  0.023401  0.000000
  0.245496  0.026086  0.000000
  0.245436  0.032156  0.000000
  0.207246  0.045296  0.000000
  0.217062  0.055031  0.000000
  0.186635  0.045920  0.000000
  0.175186  0.044638  0.000000
  0.202044  0.049807  0.000000
  0.185713  0.057190  0.000000
  0.196406  0.054327  0.000000
  0.173309  0.069907  0.000000
  0.173807  0.063029  0.000000
  0.174853  0.077101  0.000000
  0.153165  0.078573  0.000000
  0.161945  0.081878  0.000000
  0.156960  0.089385  0.000000
  0.154331  0.092996  0.000000
  0.145639  0.101309  0.000000
  0.144293  0.113028  0.000000
  0.144071  0.106958  0.000000
  0.336172  0.010580  0.000000
  0.320162  0.012067  0.000000
  0.345687  0.012507  0.000000
  0.324295  0.012632  0.000000
  0.358622  0.017161  0.000000
  0.336655  0.017146  0.000000
  0.349380  0.029840  0.000000
  0.308739  0.019614  0.000000
  0.309402  0.011736  0.000000
  0.307863  0.031996  0.000000
  0.274329  0.037021  0.000000
  0.277569  0.039640  0.000000
  0.262527  0.049179  0.000000
  0.260587  0.029709  0.000000
  0.251434  0.040057  0.000000
  0.216196  0.045605  0.000000
  0.234457  0.039015  0.000000
  0.230888  0.051756  0.000000
  0.232358  0.059838  0.000000
  0.214345  0.061329  0.000000
  0.203727  0.064742  0.000000
  0.193336  0.063346  0.000000
  0.192937  0.072413  0.000000
  0.185828  0.072809  0.000000
  0.189221  0.081404  0.000000
  0.176120  0.084984  0.000000
  0.173137  0.092273  0.000000
  0.165634  0.099184  0.000000
  0.164807  0.103428  0.000000
  0.157785  0.105716  0.000000
  0.408692  0.011606  0.000000
  0.354491  0.010719  0.000000
  0.415937  0.014030  0.000000
  0.381380  0.015192  0.000000
  0.427131  0.027783  0.000000
  0.387522  0.010695  0.000000
  0.417257  0.022136  0.000000
  0.365300  0.031636  0.000000
  0.337277  0.034546  0.000000
  0.316504  0.027845  0.000000
  0.322005  0.035451  0.000000
  0.311521  0.043846  0.000000
  0.264698  0.036499  0.000000
  0.293014  0.019920  0.000000
  0.294327  0.033108  0.000000
  0.289208  0.039107  0.000000
  0.258900  0.054449  0.000000
  0.249698  0.043820  0.000000
  0.250103  0.060237  0.000000
  0.239151  0.046605  0.000000
  0.244055  0.055200  0.000000
  0.222437  0.064188  0.000000
  0.233138  0.067614  0.000000
  0.207955  0.071470  0.000000
  0.213363  0.082929  0.000000
  0.203067  0.082286  0.000000
  0.198478  0.087210  0.000000
  0.190596  0.090950  0.000000
  0.180546  0.093774  0.000000
  0.181778  0.103870  0.000000
  0.445997  0.014041  0.000000
  0.409682  0.025787  0.000000
  0.483883  0.012092  0.000000
  0.432651  0.010752  0.000000
  0.470373  0.012647  0.000000
  0.423935  0.011423  0.000000
  0.448622  0.010439  0.000000
  0.434044  0.017294  0.000000
  0.400120  0.029724  0.000000
  0.377400  0.023557  0.000000
  0.396221  0.013368  0.000000
  0.349389  0.022475  0.000000
  0.353040  0.033225  0.000000
  0.355533  0.049592  0.000000
  0.344751  0.044738  0.000000
  0.311037  0.045137  0.000000
  0.296606  0.043475  0.000000
  0.288191  0.049359  0.000000
  0.287227  0.055763  0.000000
  0.275794  0.053907  0.000000
  0.271920  0.066433  0.000000
  0.258918  0.065161  0.000000
  0.243642  0.066847  0.000000
  0.245160  0.080654  0.000000
  0.214254  0.074427  0.000000
  0.228331  0.075318  0.000000
  0.220722  0.091849  0.000000
  0.203519  0.098398  0.000000
  0.205689  0.102978  0.000000
  0.192696  0.100592  0.000000
  0.542543  0.011077  0.000000
  0.503436  0.011722  0.000000
  0.543961  0.016670  0.000000
  0.519989  0.014663  0.000000
  0.529686  0.012688  0.000000
  0.500600  0.012092  0.000000
  0.486720  0.012194  0.000000
  0.456925  0.017813  0.000000
  0.464126  0.009982  0.000000
  0.445325  0.028690  0.000000
  0.433931  0.034084  0.000000
  0.398958  0.014351  0.000000
  0.392429  0.027952  0.000000
  0.380346  0.034348  0.000000
  0.368191  0.023922  0.000000
  0.357670  0.041832  0.000000
  0.342843  0.051780  0.000000
  0.334059  0.036316  0.000000
  0.337707  0.055431  0.000000
  0.322642  0.050178  0.000000
  0.301515  0.052603  0.000000
  0.311222  0.058115  0.000000
  0.269665  0.051427  0.000000
  0.280829  0.062581  0.000000
  0.264223  0.069444  0.000000
  0.248167  0.074548  0.000000
  0.237046  0.092528  0.000000
  0.237262  0.079834  0.000000
  0.223402  0.087257  0.000000
  0.213374  0.095378  0.000000
  0.637036  0.011732  0.000000
  0.597386  0.023220  0.000000
  0.599066  0.009673  0.000000
  0.577230  0.011997  0.000000
  0.590550  0.014094  0.000000
  0.554526  0.009899  0.000000
  0.526093  0.025652  0.000000
  0.534378  0.020661  0.000000
  0.515888  0.011010  0.000000
  0.488934  0.022738  0.000000
  0.469745  0.019816  0.000000
  0.453480  0.026214  0.000000
  0.438332  0.025611  0.000000
  0.450542  0.042303  0.000000
  0.402175  0.036190  0.000000
  0.406746  0.045546  0.000000
  0.387275  0.030410  0.000000
  0.373967  0.010267  0.000000
  0.366757  0.013949  0.000000
  0.394040  0.045566  0.000000
  0.366551  0.040627  0.000000
  0.348802  0.064064  0.000000
  0.328814  0.046328  0.000000
  0.299406  0.059763  0.000000
  0.294153  0.066994  0.000000
  0.278321  0.072004  0.000000
  0.265283  0.080239  0.000000
  0.257693  0.081161  0.000000
  0.249955  0.095156  0.000000
  0.236568  0.094660  0.000000
  0.663921  0.019174  0.000000
  0.634657  0.021812  0.000000
  0.644026  0.010983  0.000000
  0.626390  0.011518  0.000000
  0.641588  0.051440  0.000000
  0.606540  0.012326  0.000000
  0.580428  0.025003  0.000000
  0.590960  0.030366  0.000000
  0.548457  0.025185  0.000000
  0.582430  0.030437  0.000000
  0.563541  0.025313  0.000000
  0.519319  0.026692  0.000000
  0.497647  0.023784  0.000000
  0.514998  0.043620  0.000000
  0.481640  0.024435  0.000000
  0.465448  0.026772  0.000000
  0.470050  0.048695  0.000000
  0.428677  0.042416  0.000000
  0.434542  0.044333  0.000000
  0.413775  0.033598  0.000000
  0.389545  0.046561  0.000000
  0.374731  0.037363  0.000000
  0.374563  0.054578  0.000000
  0.337964  0.066857  0.000000
  0.329872  0.060807  0.000000
  0.314482  0.070567  0.000000
  0.292890  0.072033  0.000000
  0.284210  0.083513  0.000000
  0.268070  0.088548  0.000000
  0.259420  0.089203  0.000000
  0.677662  0.015937  0.000000
  0.682641  0.046539  0.000000
  0.676240  0.032751  0.000000
  0.674185  0.027122  0.000000
  0.662880  0.044399  0.000000
  0.651709  0.012441  0.000000
  0.619850  0.011255  0.000000
  0.632114  0.041951  0.000000
  0.598125  0.032913  0.000000
  0.611066  0.019486  0.000000
  0.606693  0.035616  0.000000
  0.569650  0.009941  0.000000
  0.586392  0.013530  0.000000
  0.569885  0.022314  0.000000
  0.509146  0.021882  0.000000
  0.532145  0.038197  0.000000
  0.512020  0.032017  0.000000
  0.481351  0.032771  0.000000
  0.481104  0.043063  0.000000
  0.460209  0.033246  0.000000
  0.448547  0.039750  0.000000
  0.418145  0.038958  0.000000
  0.403067  0.061008  0.000000
  0.385809  0.050033  0.000000
  0.357801  0.056526  0.000000
  0.359378  0.063872  0.000000
  0.322002  0.057639  0.000000
  0.309818  0.066214  0.000000
  0.295823  0.082987  0.000000
  0.279186  0.080244  0.000000
  0.685921  0.027775  0.000000
  0.685122  0.010197  0.000000
  0.688065  0.060394  0.000000
  0.685769  0.107472  0.000000
  0.672076  0.011313  0.000000
  0.662835  0.011763  0.000000
  0.672270  0.051409  0.000000
  0.664021  0.059087  0.000000
  0.649417  0.021177  0.000000
  0.658001  0.025128  0.000000
  0.656594  0.042564  0.000000
  0.640676  0.030611  0.000000
  0.623525  0.031890  0.000000
  0.644651  0.038155  0.000000
  0.611685  0.041832  0.000000
  0.579337  0.043223  0.000000
  0.566791  0.040035  0.000000
  0.560893  0.015951  0.000000
  0.539774  0.031575  0.000000
  0.513845  0.048604  0.000000
  0.505204  0.031805  0.000000
  0.473447  0.035530  0.000000
  0.445961  0.051421  0.000000
  0.445572  0.065417  0.000000
  0.416674  0.048599  0.000000
  0.390423  0.061019  0.000000
  0.370673  0.053206  0.000000
  0.347283  0.078273  0.000000
  0.331396  0.072652  0.000000
  0.299678  0.078771  0.000000
  0.683116  0.098203  0.000000
  0.670167  0.150921  0.000000
  0.691399  0.042301  0.000000
  0.689434  0.068619  0.000000
  0.637809  0.183201  0.000000
  0.681161  0.062207  0.000000
  0.685916  0.084902  0.000000
  0.674225  0.100674  0.000000
  0.686073  0.142756  0.000000
  0.676779  0.079004  0.000000
  0.663120  0.032682  0.000000
  0.670876  0.040495  0.000000
  0.660505  0.060790  0.000000
  0.649100  0.060739  0.000000
  0.649626  0.032756  0.000000
  0.653549  0.051579  0.000000
  0.618721  0.039129  0.000000
  0.610069  0.026664  0.000000
  0.589967  0.042494  0.000000
  0.565949  0.033031  0.000000
  0.535802  0.046427  0.000000
  0.525510  0.039862  0.000000
  0.497065  0.036664  0.000000
  0.494688  0.056482  0.000000
  0.443393  0.053541  0.000000
  0.429047  0.057841  0.000000
  0.409964  0.054108  0.000000
  0.386636  0.066094  0.000000
  0.352272  0.070000  0.000000
  0.325684  0.075120  0.000000
  0.688000  0.077106  0.000000
  0.638261  0.241134  0.000000
  0.686933  0.133596  0.000000
  0.684691  0.048210  0.000000
  0.688825  0.121376  0.000000
  0.688251  0.028106  0.000000
  0.689570  0.014958  0.000000
  0.689797  0.108537  0.000000
  0.666539  0.125994  0.000000
  0.680849  0.157681  0.000000
  0.670596  0.131079  0.000000
  0.674174  0.072020  0.000000
  0.667801  0.106593  0.000000
  0.669360  0.118605  0.000000
  0.671812  0.064227  0.000000
  0.663158  0.080149  0.000000
  0.657834  0.075208  0.000000
  0.647807  0.071976  0.000000
  0.631417  0.026874  0.000000
  0.622069  0.047648  0.000000
  0.603409  0.053456  0.000000
  0.596225  0.055155  0.000000
  0.549214  0.047115  0.000000
  0.551020  0.029664  0.000000
  0.506577  0.049663  0.000000
  0.490620  0.039264  0.000000
  0.459452  0.055726  0.000000
  0.427583  0.053679  0.000000
  0.381804  0.063909  0.000000
  0.369871  0.067147  0.000000
  0.632705  0.232707  0.000000
  0.677956  0.198449  0.000000
  0.689439  0.092821  0.000000
  0.609378  0.331557  0.000000
  0.676993  0.290654  0.000000
  0.621787  0.254856  0.000000
  0.668714  0.291658  0.000000
  0.673190  0.160502  0.000000
  0.673371  0.205132  0.000000
  0.666381  0.237787  0.000000
  0.664184  0.180189  0.000000
  0.683039  0.160595  0.000000
  0.686904  0.179819  0.000000
  0.653204  0.157998  0.000000
  0.666380  0.083617  0.000000
  0.682924  0.138302  0.000000
  0.675539  0.089825  0.000000
  0.668717  0.140764  0.000000
  0.653158  0.094372  0.000000
  0.648326  0.089537  0.000000
  0.631757  0.061191  0.000000
  0.620748  0.020724  0.000000
  0.640464  0.049672  0.000000
  0.558358  0.050639  0.000000
  0.561564  0.042238  0.000000
  0.543255  0.040838  0.000000
  0.498171  0.045006  0.000000
  0.464216  0.042584  0.000000
  0.418320  0.065909  0.000000
  0.411115  0.061945  0.000000
  0.565770  0.370742  0.000000
  0.647596  0.217896  0.000000
  0.545362  0.342041  0.000000
  0.528879  0.389860  0.000000
  0.605218  0.365845  0.000000
  0.648939  0.257610  0.000000
  0.672794  0.275945  0.000000
  0.678989  0.327164  0.000000
  0.674753  0.252751  0.000000
  0.658796  0.349087  0.000000
  0.640031  0.234880  0.000000
  0.664762  0.225789  0.000000
  0.681218  0.232985  0.000000
  0.681560  0.204975  0.000000
  0.659071  0.169005  0.000000
  0.686004  0.182999  0.000000
  0.655685  0.128589  0.000000
  0.654102  0.113708  0.000000
  0.665886  0.110102  0.000000
  0.664634  0.096790  0.000000
  0.649406  0.081176  0.000000
  0.643929  0.067691  0.000000
  0.626346  0.052489  0.000000
  0.601096  0.048097  0.000000
  0.577023  0.046219  0.000000
  0.527065  0.053108  0.000000
  0.481689  0.056774  0.000000
  0.482684  0.052167  0.000000
  0.435930  0.063731  0.000000
 -0.010000  0.500000  0.000000
 -0.010000  0.490000  0.000000
 -0.010000  0.480000  0.000000
 -0.010000  0.470000  0.000000
 -0.010000  0.460000  0.000000
 -0.010000  0.450000  0.000000
 -0.010000  0.440000  0.000000
 -0.010000  0.430000  0.000000
 -0.010000  0.420000  0.000000
 -0.010000  0.410000  0.000000
 -0.010000  0.400000  0.000000
 -0.010000  0.390000  0.000000
 -0.010000  0.380000  0.000000
 -0.010000  0.370000  0.000000
 -0.010000  0.360000  0.000000
 -0.010000  0.350000  0.000000
 -0.010000  0.340000  0.000000
 -0.010000  0.330000  0.000000
 -0.010000  0.320000  0.000000
 -0.010000  0.310000  0.000000
 -0.010000  0.300000  0.000000
 -0.010000  0.290000  0.000000
 -0.010000  0.280000  0.000000
 -0.010000  0.270000  0.000000
 -0.010000  0.260000  0.000000
 -0.010000  0.250000  0.000000
 -0.010000  0.240000  0.000000
 -0.010000  0.230000  0.000000
 -0.010000  0.220000  0.000000
 -0.010000  0.210000  0.000000
 -0.010000  0.200000  0.000000
 -0.010000  0.190000  0.000000
 -0.010000  0.180000  0.000000
 -0.010000  0.170000  0.000000
 -0.010000  0.160000  0.000000
 -0.010000  0.150000  0.000000
 -0.010000  0.140000  0.000000
 -0.010000  0.130000  0.000000
 -0.010000  0.120000  0.000000
 -0.010000  0.110000  0.000000
 -0.010000  0.100000  0.000000
 -0.010000  0.090000  0.000000
 -0.010000  0.080000  0.000000
 -0.010000  0.070000  0.000000
 -0.010000  0.060000  0.000000
 -0.010000  0.050000  0.000000
 -0.010000  0.040000  0.000000
 -0.010000  0.030000  0.000000
 -0.010000  0.020000  0.000000
 -0.010000  0.010000  0.000000
 -0.100000 -0.010000  0.000000
 -0.090000 -0.010000  0.000000
 -0.080000 -0.010000  0.000000
 -0.070000 -0.010000  0.000000
 -0.060000 -0.010000  0.000000
 -0.050000 -0.010000  0.000000
 -0.040000 -0.010000  0.000000
 -0.030000 -0.010000  0.000000
 -0.020000 -0.010000  0.000000