<?xml version="1.0" encoding="UTF-8"?>
<VTKFile type="UnstructuredGrid" version="1.0" byte_order="LittleEndian">
<UnstructuredGrid>
  <Piece NumberOfPoints="1548" NumberOfCells="1548">
      <PointData>
        <DataArray type="Int32" Name="Type" format="ascii">
 1 1 1 1 1 1 1 1 1 1
 1 1 1 1 1 1 1 1 1 1
 1 1 1 1 1 1 1 1 1 1
 1 1 1 1 1 1 1 1 1 1
 1 1 1 1 1 1 1 1 1 1
 1 1 1 1 1 1 1 1 1 1
 1 3 3 3 3 3 3 3 3 3
 3 3 3 3 3 3 3 3 3 3
 3 3 3 3 3 3 3 3 3 3
 3 3 3 3 3 3 3 3 3 3
 3 3 3 3 3 3 3 3 3 3
 3 3 3 3 3 3 3 3 3 3
 3 3 3 3 3 3 3 3 3 3
 1 1 1 1 1 1 1 1 1 1
 1 1 1 1 1 1 1 1 1 1
 1 1 1 1 1 1 1 1 1 1
 1 1 1 1 1 1 1 1 1 1
 1 1 1 1 1 1 1 1 1 1
 1 1 1 1 1 1 1 1 1 1
 1 2 2 2 2 2 2 2 2 2
 2 2 2 2 2 2 2 2 2 2
 2 2 2 2 2 2 2 2 2 2
 2 2 2 2 2 2 2 2 2 2
 2 2 2 2 2 2 2 2 2 2
 2 2 2 2 2 2 2 2 2 2
 2 2 2 2 2 2 2 2 2 2
 2 2 2 2 2 2 2 2 2 2
 2 2 2 2 2 2 2 2 2 2
 2 2 2 2 2 2 2 2 2 2
 2 2 2 2 2 2 2 2 2 2
 2 2 2 2 2 2 2 2 2 2
 2 2 2 2 2 2 2 2 2 2
 2 2 2 2 2 2 2 2 2 2
 2 2 2 2 2 2 2 2 2 2
 2 2 2 2 2 2 2 2 2 2
 2 2 2 2 2 2 2 2 2 2
 2 2 2 2 2 2 2 2 2 2
 2 2 2 2 2 2 2 2 2 2
 2 2 2 2 2 2 2 2 2 2
 2 2 2 2 2 2 2 2 2 2
 2 2 2 2 2 2 2 2 2 2
 2 2 2 2 2 2 2 2 2 2
 2 2 2 2 2 2 2 2 2 2
 2 2 2 2 2 2 2 2 2 2
 2 2 2 2 2 2 2 2 2 2
 2 2 2 2 2 2 2 2 2 2
 2 2 2 2 2 2 2 2 2 2
 2 2 2 2 2 2 2 2 2 2
 2 2 2 2 2 2 2 2 2 2
 2 2 2 2 2 2 2 2 2 2
 2 2 2 2 2 2 2 2 2 2
 2 2 2 2 2 2 2 2 2 2
 2 2 2 2 2 2 2 2 2 2
 2 2 2 2 2 2 2 2 2 2
 2 2 2 2 2 2 2 2 2 2
 2 2 2 2 2 2 2 2 2 2
 2 2 2 2 2 2 2 2 2 2
 2 2 2 2 2 2 2 2 2 2
 2 2 2 2 2 2 2 2 2 2
 2 2 2 2 2 2 2 2 2 2
 2 2 2 2 2 2 2 2 2 2
 2 2 2 2 2 2 2 2 2 2
 2 2 2 2 2 2 2 2 2 2
 2 2 2 2 2 2 2 2 2 2
 2 2 2 2 2 2 2 2 2 2
 2 2 2 2 2 2 2 2 2 2
 2 2 2 2 2 2 2 2 2 2
 2 2 2 2 2 2 2 2 2 2
 2 2 2 2 2 2 2 2 2 2
 2 2 2 2 2 2 2 2 2 2
 2 2 2 2 2 2 2 2 2 2
 2 2 2 2 2 2 2 2 2 2
 2 2 2 2 2 2 2 2 2 2
 2 2 2 2 2 2 2 2 2 2
 2 2 2 2 2 2 2 2 2 2
 2 2 2 2 2 2 2 2 2 2
 2 2 2 2 2 2 2 2 2 2
 2 2 2 2 2 2 2 2 2 2
 2 2 2 2 0 0 0 0 0 0
 0 0 0 0 0 0 0 0 0 0
 0 0 0 0 0 0 0 0 0 0
 0 0 0 0 0 0 0 0 0 0
 0 0 0 0 0 0 0 0 0 0
 0 0 0 0 0 0 0 0 0 0
 0 0 0 0 0 0 0 0 0 0
 0 0 0 0 0 0 0 0 0 0
 0 0 0 0 0 0 0 0 0 0
 0 0 0 0 0 0 0 0 0 0
 0 0 0 0 0 0 0 0 0 0
 0 0 0 0 0 0 0 0 0 0
 0 0 0 0 0 0 0 0 0 0
 0 0 0 0 0 0 0 0 0 0
 0 0 0 0 0 0 0 0 0 0
 0 0 0 0 0 0 0 0 0 0
 0 0 0 0 0 0 0 0 0 0
 0 0 0 0 0 0 0 0 0 0
 0 0 0 0 0 0 0 0 0 0
 0 0 0 0 0 0 0 0 0 0
 0 0 0 0 0 0 0 0 0 0
 0 0 0 0 0 0 0 0 0 0
 0 0 0 0 0 0 0 0 0 0
 0 0 0 0 0 0 0 0 0 0
 0 0 0 0 0 0 0 0 0 0
 0 0 0 0 0 0 0 0 0 0
 0 0 0 0 0 0 0 0 0 0
 0 0 0 0 0 0 0 0 0 0
 0 0 0 0 0 0 0 0 0 0
 0 0 0 0 0 0 0 0 0 0
 0 0 0 0 0 0 0 0 0 0
 0 0 0 0 0 0 0 0 0 0
 0 0 0 0 0 0 0 0 0 0
 0 0 0 0 0 0 0 0 0 0
 0 0 0 0 0 0 0 0 0 0
 0 0 0 0 0 0 0 0 0 0
 0 0 0 0 0 0 0 0 0 0
 0 0 0 0 0 0 0 0 0 0
 0 0 0 0 0 0 0 0 0 0
 0 0 0 0 0 0 0 0 0 0
 0 0 0 0 0 0 0 0 0 0
 0 0 0 0 0 0 0 0 0 0
 0 0 0 0 0 0 0 0 0 0
 0 0 0 0 0 0 0 0 0 0
 0 0 0 0 0 0 0 0 0 0
 0 0 0 0 0 0 0 0 0 0
 0 0 0 0 0 0 0 0 0 0
 0 0 0 0 0 0 0 0 0 0
 0 0 0 0 0 0 0 0 0 0
 0 0 0 0 0 0 0 0 0 0
 0 0 0 0 0 0 0 0 0 0
 0 0 0 0 0 0 0 0 0 0
 0 0 0 0 0 0 0 0 0 0
 0 0 0 0 0 0 0 0 0 0
 0 0 0 0 0 0 0 0 0 0
 0 0 0 0 0 0 0 0 0 0
 0 0 0 0 0 0 0 0 0 0
 0 0 0 0 0 0 0 0 0 0
 0 0 0 0 0 0 0 0 0 0
 0 0 0 0 0 0 0 0 0 0
 0 0 0 0 0 0 0 0 0 0
 0 0 0 0 0 0 0 0 0 0
 0 0 0 0 0 0 0 0 0 0
 0 0 0 0 0 0 0 0 0 0
 0 0 0 0 0 0 0 0 0 0
 0 0 0 0 0 0 0 0 0 0
 0 0 0 0 0 0 0 0 0 0
 0 0 0 0 0 0 0 0 0 0
 0 0 0 0 0 0 0 0 0 0
 0 0 0 0 0 0 0 0 0 0
 0 0 0 0 0 0 0 0 0 0
 0 0 0 0 0 0 0 0 0 0
 0 0 0 0 0 0 0 0 0 0
 0 0 0 0 0 0 0 0 0 0
 0 0 0 0 0 0 0 0 0 0
 0 0 0 0 0 0 0 0 0 0
 0 0 0 0 0 0 0 0
        </DataArray>
      </PointData>
      <Points>
        <DataArray type="Float32" NumberOfComponents="3" format="ascii">
  0.000000  0.500000  0.000000
  0.000000  0.490000  0.000000
  0.000000  0.480000  0.000000
  0.000000  0.470000  0.000000
  0.000000  0.460000  0.000000
  0.000000  0.450000  0.000000
  0.000000  0.440000  0.000000
  0.000000  0.430000  0.000000
  0.000000  0.420000  0.000000
  0.000000  0.410000  0.000000
  0.000000  0.400000  0.000000
  0.000000  0.390000  0.000000
  0.000000  0.380000  0.000000
  0.000000  0.370000  0.000000
  0.000000  0.360000  0.000000
  0.000000  0.350000  0.000000
  0.000000  0.340000  0.000000
  0.000000  0.330000  0.000000
  0.000000  0.320000  0.000000
  0.000000  0.310000  0.000000
  0.000000  0.300000  0.000000
  0.000000  0.290000  0.000000
  0.000000  0.280000  0.000000
  0.000000  0.270000  0.000000
  0.000000  0.260000  0.000000
  0.000000  0.250000  0.000000
  0.000000  0.240000  0.000000
  0.000000  0.230000  0.000000
  0.000000  0.220000  0.000000
  0.000000  0.210000  0.000000
  0.000000  0.200000  0.000000
  0.000000  0.190000  0.000000
  0.000000  0.180000  0.000000
  0.000000  0.170000  0.000000
  0.000000  0.160000  0.000000
  0.000000  0.150000  0.000000
  0.000000  0.140000  0.000000
  0.000000  0.130000  0.000000
  0.000000  0.120000  0.000000
  0.000000  0.110000  0.000000
  0.000000  0.100000  0.000000
  0.000000  0.090000  0.000000
  0.000000  0.080000  0.000000
  0.000000  0.070000  0.000000
  0.000000  0.060000  0.000000
  0.000000  0.050000  0.000000
  0.000000  0.040000  0.000000
  0.000000  0.030000  0.000000
  0.000000  0.020000  0.000000
  0.000000  0.010000  0.000000
 -0.100000  0.000000  0.000000
 -0.090000  0.000000  0.000000
 -0.080000  0.000000  0.000000
 -0.070000  0.000000  0.000000
 -0.060000  0.000000  0.000000
 -0.050000  0.000000  0.000000
 -0.040000  0.000000  0.000000
 -0.030000  0.000000  0.000000
 -0.020000  0.000000  0.000000
 -0.010000  0.000000  0.000000
 -0.000000  0.000000  0.000000
  0.010000  0.000000  0.000000
  0.020000  0.000000  0.000000
  0.030000  0.000000  0.000000
  0.040000  0.000000  0.000000
  0.050000  0.000000  0.000000
  0.060000  0.000000  0.000000
  0.070000  0.000000  0.000000
  0.080000  0.000000  0.000000
  0.090000  0.000000  0.000000
  0.100000  0.000000  0.000000
  0.110000  0.000000  0.000000
  0.120000  0.000000  0.000000
  0.130000  0.000000  0.000000
  0.140000  0.000000  0.000000
  0.150000  0.000000  0.000000
  0.160000  0.000000  0.000000
  0.170000  0.000000  0.000000
  0.180000  0.000000  0.000000
  0.190000  0.000000  0.000000
  0.200000  0.000000  0.000000
  0.210000  0.000000  0.000000
  0.220000  0.000000  0.000000
  0.230000  0.000000  0.000000
  0.240000  0.000000  0.000000
  0.250000  0.000000  0.000000
  0.260000  0.000000  0.000000
  0.270000  0.000000  0.000000
  0.280000  0.000000  0.000000
  0.290000  0.000000  0.000000
  0.300000  0.000000  0.000000
  0.310000  0.000000  0.000000
  0.320000  0.000000  0.000000
  0.330000  0.000000  0.000000
  0.340000  0.000000  0.000000
  0.350000  0.000000  0.000000
  0.360000  0.000000  0.000000
  0.370000  0.000000  0.000000
  0.380000  0.000000  0.000000
  0.390000  0.000000  0.000000
  0.400000  0.000000  0.000000
  0.410000  0.000000  0.000000
  0.420000  0.000000  0.000000
  0.430000  0.000000  0.000000
  0.440000  0.000000  0.000000
  0.450000  0.000000  0.000000
  0.460000  0.000000  0.000000
  0.470000  0.000000  0.000000
  0.480000  0.000000  0.000000
  0.490000  0.000000  0.000000
  0.500000  0.000000  0.000000
  0.510000  0.000000  0.000000
  0.520000  0.000000  0.000000
  0.530000  0.000000  0.000000
  0.540000  0.000000  0.000000
  0.550000  0.000000  0.000000
  0.560000  0.000000  0.000000
  0.570000  0.000000  0.000000
  0.580000  0.000000  0.000000
  0.590000  0.000000  0.000000
  0.600000  0.000000  0.000000
  0.610000  0.000000  0.000000
  0.620000  0.000000  0.000000
  0.630000  0.000000  0.000000
  0.640000  0.000000  0.000000
  0.650000  0.000000  0.000000
  0.660000  0.000000  0.000000
  0.670000  0.000000  0.000000
  0.680000  0.000000  0.000000
  0.690000  0.000000  0.000000
  0.700000  0.000000  0.000000
  0.710000  0.000000  0.000000
  0.720000  0.000000  0.000000
  0.730000  0.000000  0.000000
  0.740000  0.000000  0.000000
  0.750000  0.000000  0.000000
  0.760000  0.000000  0.000000
  0.770000  0.000000  0.000000
  0.780000  0.000000  0.000000
  0.790000  0.000000  0.000000
  0.800000  0.000000  0.000000
  0.700000  0.010000  0.000000
  0.700000  0.020000  0.000000
  0.700000  0.030000  0.000000
  0.700000  0.040000  0.000000
  0.700000  0.050000  0.000000
  0.700000  0.060000  0.000000
  0.700000  0.070000  0.000000
  0.700000  0.080000  0.000000
  0.700000  0.090000  0.000000
  0.700000  0.100000  0.000000
  0.700000  0.110000  0.000000
  0.700000  0.120000  0.000000
  0.700000  0.130000  0.000000
  0.700000  0.140000  0.000000
  0.700000  0.150000  0.000000
  0.700000  0.160000  0.000000
  0.700000  0.170000  0.000000
  0.700000  0.180000  0.000000
  0.700000  0.190000  0.000000
  0.700000  0.200000  0.000000
  0.700000  0.210000  0.000000
  0.700000  0.220000  0.000000
  0.700000  0.230000  0.000000
  0.700000  0.240000  0.000000
  0.700000  0.250000  0.000000
  0.700000  0.260000  0.000000
  0.700000  0.270000  0.000000
  0.700000  0.280000  0.000000
  0.700000  0.290000  0.000000
  0.700000  0.300000  0.000000
  0.700000  0.310000  0.000000
  0.700000  0.320000  0.000000
  0.700000  0.330000  0.000000
  0.700000  0.340000  0.000000
  0.700000  0.350000  0.000000
  0.700000  0.360000  0.000000
  0.700000  0.370000  0.000000
  0.700000  0.380000  0.000000
  0.700000  0.390000  0.000000
  0.700000  0.400000  0.000000
  0.700000  0.410000  0.000000
  0.700000  0.420000  0.000000
  0.700000  0.430000  0.000000
  0.700000  0.440000  0.000000
  0.700000  0.450000  0.000000
  0.700000  0.460000  0.000000
  0.700000  0.470000  0.000000
  0.700000  0.480000  0.000000
  0.700000  0.490000  0.000000
  0.700000  0.500000  0.000000
  0.020542  0.010055  0.000000
  0.022719  0.017483  0.000000
  0.038790  0.014583  0.000000
  0.010167  0.009858  0.000000
  0.046285  0.022937  0.000000
  0.010252  0.019014  0.000000
  0.050705  0.026738  0.000000
  0.053824  0.013897  0.000000
  0.086697  0.026289  0.000000
  0.059125  0.029143  0.000000
  0.068892  0.032876  0.000000
  0.010227  0.029131  0.000000
  0.018911  0.041556  0.000000
  0.010541  0.037009  0.000000
  0.009568  0.048418  0.000000
  0.024086  0.048483  0.000000
  0.048189  0.054223  0.000000
  0.011504  0.055437  0.000000
  0.038856  0.062099  0.000000
  0.008394  0.066083  0.000000
  0.019722  0.061807  0.000000
  0.015040  0.075935  0.000000
  0.011791  0.078414  0.000000
  0.016115  0.091859  0.000000
  0.009955  0.088977  0.000000
  0.031828  0.088892  0.000000
  0.006594  0.103810  0.000000
  0.021297  0.102083  0.000000
  0.022369  0.092819  0.000000
  0.038438  0.105664  0.000000
  0.047825  0.008763  0.000000
  0.032620  0.008662  0.000000
  0.065028  0.008453  0.000000
  0.062160  0.016707  0.000000
  0.084282  0.008700  0.000000
  0.090230  0.018349  0.000000
  0.106659  0.008813  0.000000
  0.075433  0.011993  0.000000
  0.078418  0.033190  0.000000
  0.069266  0.023010  0.000000
  0.048022  0.042008  0.000000
  0.033450  0.021129  0.000000
  0.072101  0.043246  0.000000
  0.032576  0.029707  0.000000
  0.058343  0.045515  0.000000
  0.025771  0.033822  0.000000
  0.020403  0.025984  0.000000
  0.036429  0.040242  0.000000
  0.062797  0.053819  0.000000
  0.029245  0.048912  0.000000
  0.062884  0.061169  0.000000
  0.042066  0.049828  0.000000
  0.021826  0.065918  0.000000
  0.036470  0.069801  0.000000
  0.027532  0.080542  0.000000
  0.038727  0.088931  0.000000
  0.029970  0.075492  0.000000
  0.044258  0.079164  0.000000
  0.040434  0.097031  0.000000
  0.054855  0.091654  0.000000
  0.131233  0.011074  0.000000
  0.095284  0.010053  0.000000
  0.120020  0.009333  0.000000
  0.101213  0.019445  0.000000
  0.119313  0.015340  0.000000
  0.151301  0.010652  0.000000
  0.172105  0.014765  0.000000
  0.130858  0.027752  0.000000
  0.103338  0.037632  0.000000
  0.077607  0.020256  0.000000
  0.116474  0.026293  0.000000
  0.108206  0.018458  0.000000
  0.085675  0.045337  0.000000
  0.090339  0.066003  0.000000
  0.109324  0.054333  0.000000
  0.042816  0.034951  0.000000
  0.073142  0.048533  0.000000
  0.059707  0.038588  0.000000
  0.052364  0.061089  0.000000
  0.031909  0.059244  0.000000
  0.074016  0.061079  0.000000
  0.070954  0.073125  0.000000
  0.057136  0.069626  0.000000
  0.048447  0.071947  0.000000
  0.063957  0.080393  0.000000
  0.054372  0.081174  0.000000
  0.058386  0.090741  0.000000
  0.068708  0.106131  0.000000
  0.068200  0.096047  0.000000
  0.046010  0.099117  0.000000
  0.170888  0.008587  0.000000
  0.139502  0.009437  0.000000
  0.184481  0.010628  0.000000
  0.143593  0.019427  0.000000
  0.169219  0.037375  0.000000
  0.157461  0.010452  0.000000
  0.159541  0.031011  0.000000
  0.160791  0.020857  0.000000
  0.142709  0.036965  0.000000
  0.093957  0.029945  0.000000
  0.154364  0.035804  0.000000
  0.104663  0.030784  0.000000
  0.127965  0.038501  0.000000
  0.086494  0.038414  0.000000
  0.086687  0.054748  0.000000
  0.132671  0.020432  0.000000
  0.097439  0.044594  0.000000
  0.112912  0.039441  0.000000
  0.097339  0.052112  0.000000
  0.095068  0.063303  0.000000
  0.123628  0.059113  0.000000
  0.079224  0.060124  0.000000
  0.073797  0.073451  0.000000
  0.106040  0.070334  0.000000
  0.090609  0.075617  0.000000
  0.074734  0.090529  0.000000
  0.089629  0.093573  0.000000
  0.079009  0.085227  0.000000
  0.074999  0.100246  0.000000
  0.090042  0.098678  0.000000
  0.207599  0.010292  0.000000
  0.191395  0.009780  0.000000
  0.200379  0.014175  0.000000
  0.183105  0.020859  0.000000
  0.240289  0.013577  0.000000
  0.177744  0.028029  0.000000
  0.169236  0.023682  0.000000
  0.190028  0.024814  0.000000
  0.151436  0.023713  0.000000
  0.200366  0.032748  0.000000
  0.140753  0.029363  0.000000
  0.181915  0.035984  0.000000
  0.169310  0.042131  0.000000
  0.157403  0.046302  0.000000
  0.166617  0.061241  0.000000
  0.120271  0.029460  0.000000
  0.143852  0.043694  0.000000
  0.122670  0.043159  0.000000
  0.136165  0.062284  0.000000
  0.111974  0.048792  0.000000
  0.106233  0.060779  0.000000
  0.125617  0.053854  0.000000
  0.113664  0.072216  0.000000
  0.084769  0.080604  0.000000
  0.117649  0.078941  0.000000
  0.096885  0.081112  0.000000
  0.103324  0.079528  0.000000
  0.118744  0.097909  0.000000
  0.104369  0.091798  0.000000
  0.095133  0.098027  0.000000
  0.243199  0.011904  0.000000
  0.220471  0.012992  0.000000
  0.272319  0.020239  0.000000
  0.239133  0.029139  0.000000
  0.287080  0.012762  0.000000
  0.247428  0.033802  0.000000
  0.262966  0.012752  0.000000
  0.227538  0.010256  0.000000
  0.230864  0.018560  0.000000
  0.252955  0.022810  0.000000
  0.217620  0.025554  0.000000
  0.227812  0.025909  0.000000
  0.212462  0.017011  0.000000
  0.184653  0.043720  0.000000
  0.168589  0.053582  0.000000
  0.181943  0.049665  0.000000
  0.133544  0.046712  0.000000
  0.195233  0.048634  0.000000
  0.141783  0.052621  0.000000
  0.158875  0.049429  0.000000
  0.146355  0.058438  0.000000
  0.153899  0.063845  0.000000
  0.121464  0.067392  0.000000
  0.143360  0.069986  0.000000
  0.138408  0.080809  0.000000
  0.131616  0.068253  0.000000
  0.129476  0.081025  0.000000
  0.128114  0.081139  0.000000
  0.111692  0.088910  0.000000
  0.125050  0.099713  0.000000
  0.307313  0.011440  0.000000
  0.255559  0.010012  0.000000
  0.271179  0.012569  0.000000
  0.251858  0.020832  0.000000
  0.342674  0.022237  0.000000
  0.298373  0.010860  0.000000
  0.320212  0.009809  0.000000
  0.281593  0.011408  0.000000
  0.278310  0.024899  0.000000
  0.267145  0.032424  0.000000
  0.264354  0.029033  0.000000
  0.273636  0.042143  0.000000
  0.235395  0.034831  0.000000
  0.200853  0.022264  0.000000
  0.209886  0.030895  0.000000
  0.192902  0.034074  0.000000
  0.199813  0.046987  0.000000
  0.218571  0.044002  0.000000
  0.186982  0.058803  0.000000
  0.176060  0.058965  0.000000
  0.192325  0.061730  0.000000
  0.171164  0.070243  0.000000
  0.154236  0.068665  0.000000
  0.169708  0.074885  0.000000
  0.153412  0.077436  0.000000
  0.161227  0.082612  0.000000
  0.152467  0.100950  0.000000
  0.148013  0.084598  0.000000
  0.145609  0.093643  0.000000
  0.142931  0.091398  0.000000
  0.334086  0.017222  0.000000
  0.324775  0.014219  0.000000
  0.378699  0.027064  0.000000
  0.338463  0.009372  0.000000
  0.398983  0.027597  0.000000
  0.362672  0.010511  0.000000
  0.359429  0.024242  0.000000
  0.338634  0.030137  0.000000
  0.346551  0.013670  0.000000
  0.325628  0.025131  0.000000
  0.309601  0.017334  0.000000
  0.294402  0.019660  0.000000
  0.292501  0.025557  0.000000
  0.251163  0.038093  0.000000
  0.262937  0.049067  0.000000
  0.221411  0.035007  0.000000
  0.208874  0.039180  0.000000
  0.249074  0.050623  0.000000
  0.228503  0.041706  0.000000
  0.241504  0.044995  0.000000
  0.206566  0.059487  0.000000
  0.207885  0.051501  0.000000
  0.212945  0.063383  0.000000
  0.180901  0.069794  0.000000
  0.197867  0.066470  0.000000
  0.189241  0.076489  0.000000
  0.185701  0.080417  0.000000
  0.173495  0.084798  0.000000
  0.168740  0.091389  0.000000
  0.174133  0.096466  0.000000
  0.406836  0.010838  0.000000
  0.385826  0.009907  0.000000
  0.416395  0.011287  0.000000
  0.388187  0.013506  0.000000
  0.431261  0.025974  0.000000
  0.399910  0.013116  0.000000
  0.416752  0.035548  0.000000
  0.369314  0.016510  0.000000
  0.372984  0.011991  0.000000
  0.368517  0.029292  0.000000
  0.324558  0.035325  0.000000
  0.333212  0.035107  0.000000
  0.313986  0.040776  0.000000
  0.318535  0.024266  0.000000
  0.308098  0.025799  0.000000
  0.262224  0.040557  0.000000
  0.284783  0.030800  0.000000
  0.271845  0.052317  0.000000
  0.286484  0.052895  0.000000
  0.254237  0.051956  0.000000
  0.235980  0.054590  0.000000
  0.228808  0.051743  0.000000
  0.226245  0.063688  0.000000
  0.218956  0.053103  0.000000
  0.226728  0.066190  0.000000
  0.206516  0.074523  0.000000
  0.202266  0.076284  0.000000
  0.198689  0.086720  0.000000
  0.208883  0.090400  0.000000
  0.185939  0.087236  0.000000
  0.487086  0.015442  0.000000
  0.418199  0.020765  0.000000
  0.496825  0.009958  0.000000
  0.462782  0.016986  0.000000
  0.507624  0.027460  0.000000
  0.462778  0.014196  0.000000
  0.499419  0.022558  0.000000
  0.443256  0.022412  0.000000
  0.413311  0.031548  0.000000
  0.382919  0.021175  0.000000
  0.387265  0.032598  0.000000
  0.373722  0.040382  0.000000
  0.306929  0.034133  0.000000
  0.353545  0.012705  0.000000
  0.356143  0.025153  0.000000
  0.349620  0.035571  0.000000
  0.300647  0.045287  0.000000
  0.299963  0.034929  0.000000
  0.296551  0.047361  0.000000
  0.280819  0.042481  0.000000
  0.287406  0.037724  0.000000
  0.264823  0.063242  0.000000
  0.275539  0.058916  0.000000
  0.243379  0.060855  0.000000
  0.263428  0.077995  0.000000
  0.246455  0.071851  0.000000
  0.240680  0.065995  0.000000
  0.226116  0.077547  0.000000
  0.215188  0.073380  0.000000
  0.222450  0.085094  0.000000
  0.523557  0.018024  0.000000
  0.482191  0.029458  0.000000
  0.577145  0.012568  0.000000
  0.512968  0.011390  0.000000
  0.558480  0.010778  0.000000
  0.499864  0.015010  0.000000
  0.531752  0.010423  0.000000
  0.519240  0.011773  0.000000
  0.477195  0.019035  0.000000
  0.443602  0.009768  0.000000
  0.470483  0.009787  0.000000
  0.405963  0.020437  0.000000
  0.424146  0.026282  0.000000
  0.433703  0.043076  0.000000
  0.413532  0.048990  0.000000
  0.366262  0.037252  0.000000
  0.358673  0.042280  0.000000
  0.344673  0.038504  0.000000
  0.340207  0.049437  0.000000
  0.325383  0.054191  0.000000
  0.323421  0.064239  0.000000
  0.309341  0.056745  0.000000
  0.288821  0.055944  0.000000
  0.291560  0.079815  0.000000
  0.260190  0.064099  0.000000
  0.257905  0.072579  0.000000
  0.272770  0.088575  0.000000
  0.239816  0.087008  0.000000
  0.243108  0.077285  0.000000
  0.225177  0.083025  0.000000
  0.623839  0.016098  0.000000
  0.584153  0.013688  0.000000
  0.628846  0.018991  0.000000
  0.608236  0.010213  0.000000
  0.616854  0.010581  0.000000
  0.595306  0.012547  0.000000
  0.567370  0.013142  0.000000
  0.541564  0.011370  0.000000
  0.548390  0.013996  0.000000
  0.528235  0.028644  0.000000
  0.513312  0.023811  0.000000
  0.482106  0.011894  0.000000
  0.471061  0.027735  0.000000
  0.457491  0.028272  0.000000
  0.431312  0.011902  0.000000
  0.423391  0.041659  0.000000
  0.405157  0.043716  0.000000
  0.402830  0.035832  0.000000
  0.399968  0.050531  0.000000
  0.394608  0.048896  0.000000
  0.355836  0.045990  0.000000
  0.375280  0.050423  0.000000
  0.321701  0.042784  0.000000
  0.331943  0.049570  0.000000
  0.313722  0.050172  0.000000
  0.295165  0.063575  0.000000
  0.277590  0.087134  0.000000
  0.279532  0.070003  0.000000
  0.276061  0.069821  0.000000
  0.257282  0.082832  0.000000
  0.672033  0.013493  0.000000
  0.656547  0.053119  0.000000
  0.659620  0.032319  0.000000
  0.647314  0.018741  0.000000
  0.652754  0.038410  0.000000
  0.641805  0.021029  0.000000
  0.616813  0.028952  0.000000
  0.612601  0.027632  0.000000
  0.606180  0.017206  0.000000
  0.578491  0.021160  0.000000
  0.561987  0.019576  0.000000
  0.534625  0.019088  0.000000
  0.519649  0.031778  0.000000
  0.537464  0.045832  0.000000
  0.465978  0.037530  0.000000
  0.480361  0.053005  0.000000
  0.452305  0.021973  0.000000
  0.444937  0.014281  0.000000
  0.426402  0.012574  0.000000
  0.475290  0.043014  0.000000
  0.436609  0.035024  0.000000
  0.416189  0.060046  0.000000
  0.392281  0.029706  0.000000
  0.366907  0.058331  0.000000
  0.361182  0.058740  0.000000
  0.333500  0.062178  0.000000
  0.317638  0.068245  0.000000
  0.303627  0.061080  0.000000
  0.299943  0.071556  0.000000
  0.283881  0.075724  0.000000
  0.681336  0.047184  0.000000
  0.671051  0.046611  0.000000
  0.673498  0.025257  0.000000
  0.661292  0.023919  0.000000
  0.668111  0.117642  0.000000
  0.656794  0.011437  0.000000
  0.650884  0.043806  0.000000
  0.662503  0.055664  0.000000
  0.639313  0.048363  0.000000
  0.653079  0.060202  0.000000
  0.637372  0.031789  0.000000
  0.608276  0.035891  0.000000
  0.588208  0.024034  0.000000
  0.611345  0.054929  0.000000
  0.567444  0.026403  0.000000
  0.549330  0.023818  0.000000
  0.554568  0.056396  0.000000
  0.507135  0.038335  0.000000
  0.528442  0.036831  0.000000
  0.491149  0.027334  0.000000
  0.461701  0.037418  0.000000
  0.444089  0.032097  0.000000
  0.444242  0.055827  0.000000
  0.397664  0.070915  0.000000
  0.389269  0.053423  0.000000
  0.381100  0.068563  0.000000
  0.343901  0.054275  0.000000
  0.339391  0.075525  0.000000
  0.319315  0.071665  0.000000
  0.307154  0.073285  0.000000
  0.689828  0.037819  0.000000
  0.679524  0.126722  0.000000
  0.673648  0.084909  0.000000
  0.688982  0.083773  0.000000
  0.689307  0.120645  0.000000
  0.685420  0.032862  0.000000
  0.670708  0.009831  0.000000
  0.657016  0.095343  0.000000
  0.656045  0.074839  0.000000
  0.668158  0.033901  0.000000
  0.669479  0.077527  0.000000
  0.641606  0.008817  0.000000
  0.657278  0.016161  0.000000
  0.648211  0.030553  0.000000
  0.597505  0.018993  0.000000
  0.622999  0.049259  0.000000
  0.595016  0.035346  0.000000
  0.564354  0.032384  0.000000
  0.564069  0.039024  0.000000
  0.543372  0.025455  0.000000
  0.541202  0.033508  0.000000
  0.494520  0.036913  0.000000
  0.468723  0.072018  0.000000
  0.451452  0.042614  0.000000
  0.430683  0.047479  0.000000
  0.443073  0.062291  0.000000
  0.382113  0.041702  0.000000
  0.377732  0.053967  0.000000
  0.350226  0.055773  0.000000
  0.337781  0.070384  0.000000
  0.687062  0.063835  0.000000
  0.689271  0.013023  0.000000
  0.684853  0.140563  0.000000
  0.687119  0.225558  0.000000
  0.688107  0.022529  0.000000
  0.684160  0.012554  0.000000
  0.665788  0.146573  0.000000
  0.683357  0.150613  0.000000
  0.678365  0.026329  0.000000
  0.688899  0.061342  0.000000
  0.686299  0.105689  0.000000
  0.678788  0.056961  0.000000
  0.680568  0.072437  0.000000
  0.661648  0.120651  0.000000
  0.652962  0.113073  0.000000
  0.653956  0.073616  0.000000
  0.647761  0.075907  0.000000
  0.631754  0.013415  0.000000
  0.621808  0.036451  0.000000
  0.598545  0.043019  0.000000
  0.600599  0.030353  0.000000
  0.550311  0.037111  0.000000
  0.532838  0.051484  0.000000
  0.538844  0.058565  0.000000
  0.483193  0.047664  0.000000
  0.468575  0.058629  0.000000
  0.446654  0.042302  0.000000
  0.409155  0.069405  0.000000
  0.391651  0.061338  0.000000
  0.358431  0.063334  0.000000
  0.672427  0.211414  0.000000
  0.635725  0.260440  0.000000
  0.686599  0.098653  0.000000
  0.660345  0.177511  0.000000
  0.603141  0.306330  0.000000
  0.677114  0.165308  0.000000
  0.686217  0.175926  0.000000
  0.683545  0.194112  0.000000
  0.677628  0.251475  0.000000
  0.665465  0.172880  0.000000
  0.684973  0.079493  0.000000
  0.689143  0.116441  0.000000
  0.671719  0.132869  0.000000
  0.643862  0.127216  0.000000
  0.673697  0.106293  0.000000
  0.675402  0.119441  0.000000
  0.670660  0.085720  0.000000
  0.672296  0.068303  0.000000
  0.657153  0.096614  0.000000
  0.643572  0.051561  0.000000
  0.625527  0.063525  0.000000
  0.609691  0.047435  0.000000
  0.581686  0.032304  0.000000
  0.587429  0.043361  0.000000
  0.522299  0.040534  0.000000
  0.502323  0.063087  0.000000
  0.481398  0.034965  0.000000
  0.469466  0.052153  0.000000
  0.416054  0.055380  0.000000
  0.374579  0.068074  0.000000
  0.673139  0.169409  0.000000
  0.580146  0.377262  0.000000
  0.675586  0.225668  0.000000
  0.685664  0.134762  0.000000
  0.673849  0.241998  0.000000
  0.688250  0.091980  0.000000
  0.687921  0.046424  0.000000
  0.681522  0.207747  0.000000
  0.664585  0.235099  0.000000
  0.688608  0.268591  0.000000
  0.620906  0.219654  0.000000
  0.658590  0.151571  0.000000
  0.629852  0.218154  0.000000
  0.656795  0.202759  0.000000
  0.685522  0.152230  0.000000
  0.667451  0.180875  0.000000
  0.669970  0.152164  0.000000
  0.657270  0.148053  0.000000
  0.669673  0.060359  0.000000
  0.671318  0.135846  0.000000
  0.658589  0.134327  0.000000
  0.644428  0.096599  0.000000
  0.634494  0.056378  0.000000
  0.635656  0.035777  0.000000
  0.599893  0.052854  0.000000
  0.574174  0.036737  0.000000
  0.544597  0.045211  0.000000
  0.505100  0.039421  0.000000
  0.455822  0.050420  0.000000
  0.431352  0.057243  0.000000
  0.584504  0.375925  0.000000
  0.650154  0.344855  0.000000
  0.684879  0.199213  0.000000
  0.676485  0.414758  0.000000
  0.561295  0.381385  0.000000
  0.648421  0.444620  0.000000
  0.640997  0.259335  0.000000
  0.648372  0.354932  0.000000
  0.624859  0.407696  0.000000
  0.646513  0.330012  0.000000
  0.668700  0.302438  0.000000
  0.671208  0.316200  0.000000
  0.636671  0.230658  0.000000
  0.665937  0.196934  0.000000
  0.657601  0.247626  0.000000
  0.689031  0.190011  0.000000
  0.690710  0.236245  0.000000
  0.643405  0.155850  0.000000
  0.645023  0.171074  0.000000
  0.637874  0.138606  0.000000
  0.669689  0.043920  0.000000
  0.674209  0.105676  0.000000
  0.638087  0.062881  0.000000
  0.639586  0.068555  0.000000
  0.627865  0.036803  0.000000
  0.583919  0.042532  0.000000
  0.553790  0.045665  0.000000
  0.500366  0.049939  0.000000
  0.492133  0.058033  0.000000
  0.593790  0.357232  0.000000
  0.620866  0.399936  0.000000
  0.645035  0.442700  0.000000
  0.666777  0.493963  0.000000
  0.668888  0.382394  0.000000
  0.555081  0.369013  0.000000
  0.662026  0.342698  0.000000
  0.673016  0.367085  0.000000
  0.672478  0.326143  0.000000
  0.644311  0.247829  0.000000
  0.686806  0.291339  0.000000
  0.634438  0.239989  0.000000
  0.631914  0.217533  0.000000
  0.656189  0.224470  0.000000
  0.660072  0.197386  0.000000
  0.653517  0.191854  0.000000
  0.651850  0.158937  0.000000
  0.655624  0.108119  0.000000
  0.659063  0.086674  0.000000
  0.644028  0.085904  0.000000
  0.619961  0.052319  0.000000
  0.563573  0.051167  0.000000
  0.575042  0.051456  0.000000
  0.503703  0.053438  0.000000
 -0.010000  0.500000  0.000000
 -0.010000  0.490000  0.000000
 -0.010000  0.480000  0.000000
 -0.010000  0.470000  0.000000
 -0.010000  0.460000  0.000000
 -0.010000  0.450000  0.000000
 -0.010000  0.440000  0.000000
 -0.010000  0.430000  0.000000
 -0.010000  0.420000  0.000000
 -0.010000  0.410000  0.000000
 -0.010000  0.400000  0.000000
 -0.010000  0.390000  0.000000
 -0.010000  0.380000  0.000000
 -0.010000  0.370000  0.000000
 -0.010000  0.360000  0.000000
 -0.010000  0.350000  0.000000
 -0.010000  0.340000  0.000000
 -0.010000  0.330000  0.000000
 -0.010000  0.320000  0.000000
 -0.010000  0.310000  0.000000
 -0.010000  0.300000  0.000000
 -0.010000  0.290000  0.000000
 -0.010000  0.280000  0.000000
 -0.010000  0.270000  0.000000
 -0.010000  0.260000  0.000000
 -0.010000  0.250000  0.000000
 -0.010000  0.240000  0.000000
 -0.010000  0.230000  0.000000
 -0.010000  0.220000  0.000000
 -0.010000  0.210000  0.000000
 -0.010000  0.200000  0.000000
 -0.010000  0.190000  0.000000
 -0.010000  0.180000  0.000000
 -0.010000  0.170000  0.000000
 -0.010000  0.160000  0.000000
 -0.010000  0.150000  0.000000
 -0.010000  0.140000  0.000000
 -0.010000  0.130000  0.000000
 -0.010000  0.120000  0.000000
 -0.010000  0.110000  0.000000
 -0.010000  0.100000  0.000000
 -0.010000  0.090000  0.000000
 -0.010000  0.080000  0.000000
 -0.010000  0.070000  0.000000
 -0.010000  0.060000  0.000000
 -0.010000  0.050000  0.000000
 -0.010000  0.040000  0.000000
 -0.010000  0.030000  0.000000
 -0.010000  0.020000  0.000000
 -0.010000  0.010000  0.000000
 -0.100000 -0.010000  0.000000
 -0.090000 -0.010000  0.000000
 -0.080000 -0.010000  0.000000
 -0.070000 -0.010000  0.000000
 -0.060000 -0.010000  0.000000
 -0.050000 -0.010000  0.000000
 -0.040000 -0.010000  0.000000
 -0.030000 -0.010000  0.000000
 -0.020000 -0.010000  0.000000
 -0.010000 -0.010000  0.000000
 -0.000000 -0.010000  0.000000
  0.010000 -0.010000  0.000000
  0.020000 -0.010000  0.000000
  0.030000 -0.010000  0.000000
  0.040000 -0.010000  0.000000
  0.050000 -0.010000  0.000000