<?xml version="1.0" encoding="UTF-8"?>
<VTKFile type="UnstructuredGrid" version="1.0" byte_order="LittleEndian">
<UnstructuredGrid>
  <Piece NumberOfPoints="1555" NumberOfCells="1555">
      <PointData>
        <DataArray type="Int32" Name="Type" format="ascii">
 1 1 1 1 1 1 1 1 1 1
 1 1 1 1 1 1 1 1 1 1
 1 1 1 1 1 1 1 1 1 1
 1 1 1 1 1 1 1 1 1 1
 1 1 1 1 1 1 1 1 1 1
 1 1 1 1 1 1 1 1 1 1
 1 3 3 3 3 3 3 3 3 3
 3 3 3 3 3 3 3 3 3 3
 3 3 3 3 3 3 3 3 3 3
 3 3 3 3 3 3 3 3 3 3
 3 3 3 3 3 3 3 3 3 3
 3 3 3 3 3 3 3 3 3 3
 3 3 3 3 3 3 3 3 3 3
 1 1 1 1 1 1 1 1 1 1
 1 1 1 1 1 1 1 1 1 1
 1 1 1 1 1 1 1 1 1 1
 1 1 1 1 1 1 1 1 1 1
 1 1 1 1 1 1 1 1 1 1
 1 1 1 1 1 1 1 1 1 1
 1 2 2 2 2 2 2 2 2 2
 2 2 2 2 2 2 2 2 2 2
 2 2 2 2 2 2 2 2 2 2
 2 2 2 2 2 2 2 2 2 2
 2 2 2 2 2 2 2 2 2 2
 2 2 2 2 2 2 2 2 2 2
 2 2 2 2 2 2 2 2 2 2
 2 2 2 2 2 2 2 2 2 2
 2 2 2 2 2 2 2 2 2 2
 2 2 2 2 2 2 2 2 2 2
 2 2 2 2 2 2 2 2 2 2
 2 2 2 2 2 2 2 2 2 2
 2 2 2 2 2 2 2 2 2 2
 2 2 2 2 2 2 2 2 2 2
 2 2 2 2 2 2 2 2 2 2
 2 2 2 2 2 2 2 2 2 2
 2 2 2 2 2 2 2 2 2 2
 2 2 2 2 2 2 2 2 2 2
 2 2 2 2 2 2 2 2 2 2
 2 2 2 2 2 2 2 2 2 2
 2 2 2 2 2 2 2 2 2 2
 2 2 2 2 2 2 2 2 2 2
 2 2 2 2 2 2 2 2 2 2
 2 2 2 2 2 2 2 2 2 2
 2 2 2 2 2 2 2 2 2 2
 2 2 2 2 2 2 2 2 2 2
 2 2 2 2 2 2 2 2 2 2
 2 2 2 2 2 2 2 2 2 2
 2 2 2 2 2 2 2 2 2 2
 2 2 2 2 2 2 2 2 2 2
 2 2 2 2 2 2 2 2 2 2
 2 2 2 2 2 2 2 2 2 2
 2 2 2 2 2 2 2 2 2 2
 2 2 2 2 2 2 2 2 2 2
 2 2 2 2 2 2 2 2 2 2
 2 2 2 2 2 2 2 2 2 2
 2 2 2 2 2 2 2 2 2 2
 2 2 2 2 2 2 2 2 2 2
 2 2 2 2 2 2 2 2 2 2
 2 2 2 2 2 2 2 2 2 2
 2 2 2 2 2 2 2 2 2 2
 2 2 2 2 2 2 2 2 2 2
 2 2 2 2 2 2 2 2 2 2
 2 2 2 2 2 2 2 2 2 2
 2 2 2 2 2 2 2 2 2 2
 2 2 2 2 2 2 2 2 2 2
 2 2 2 2 2 2 2 2 2 2
 2 2 2 2 2 2 2 2 2 2
 2 2 2 2 2 2 2 2 2 2
 2 2 2 2 2 2 2 2 2 2
 2 2 2 2 2 2 2 2 2 2
 2 2 2 2 2 2 2 2 2 2
 2 2 2 2 2 2 2 2 2 2
 2 2 2 2 2 2 2 2 2 2
 2 2 2 2 2 2 2 2 2 2
 2 2 2 2 2 2 2 2 2 2
 2 2 2 2 2 2 2 2 2 2
 2 2 2 2 2 2 2 2 2 2
 2 2 2 2 2 2 2 2 2 2
 2 2 2 2 2 2 2 2 2 2
 2 0 0 0 0 0 0 0 0 0
 0 0 0 0 0 0 0 0 0 0
 0 0 0 0 0 0 0 0 0 0
 0 0 0 0 0 0 0 0 0 0
 0 0 0 0 0 0 0 0 0 0
 0 0 0 0 0 0 0 0 0 0
 0 0 0 0 0 0 0 0 0 0
 0 0 0 0 0 0 0 0 0 0
 0 0 0 0 0 0 0 0 0 0
 0 0 0 0 0 0 0 0 0 0
 0 0 0 0 0 0 0 0 0 0
 0 0 0 0 0 0 0 0 0 0
 0 0 0 0 0 0 0 0 0 0
 0 0 0 0 0 0 0 0 0 0
 0 0 0 0 0 0 0 0 0 0
 0 0 0 0 0 0 0 0 0 0
 0 0 0 0 0 0 0 0 0 0
 0 0 0 0 0 0 0 0 0 0
 0 0 0 0 0 0 0 0 0 0
 0 0 0 0 0 0 0 0 0 0
 0 0 0 0 0 0 0 0 0 0
 0 0 0 0 0 0 0 0 0 0
 0 0 0 0 0 0 0 0 0 0
 0 0 0 0 0 0 0 0 0 0
 0 0 0 0 0 0 0 0 0 0
 0 0 0 0 0 0 0 0 0 0
 0 0 0 0 0 0 0 0 0 0
 0 0 0 0 0 0 0 0 0 0
 0 0 0 0 0 0 0 0 0 0
 0 0 0 0 0 0 0 0 0 0
 0 0 0 0 0 0 0 0 0 0
 0 0 0 0 0 0 0 0 0 0
 0 0 0 0 0 0 0 0 0 0
 0 0 0 0 0 0 0 0 0 0
 0 0 0 0 0 0 0 0 0 0
 0 0 0 0 0 0 0 0 0 0
 0 0 0 0 0 0 0 0 0 0
 0 0 0 0 0 0 0 0 0 0
 0 0 0 0 0 0 0 0 0 0
 0 0 0 0 0 0 0 0 0 0
 0 0 0 0 0 0 0 0 0 0
 0 0 0 0 0 0 0 0 0 0
 0 0 0 0 0 0 0 0 0 0
 0 0 0 0 0 0 0 0 0 0
 0 0 0 0 0 0 0 0 0 0
 0 0 0 0 0 0 0 0 0 0
 0 0 0 0 0 0 0 0 0 0
 0 0 0 0 0 0 0 0 0 0
 0 0 0 0 0 0 0 0 0 0
 0 0 0 0 0 0 0 0 0 0
 0 0 0 0 0 0 0 0 0 0
 0 0 0 0 0 0 0 0 0 0
 0 0 0 0 0 0 0 0 0 0
 0 0 0 0 0 0 0 0 0 0
 0 0 0 0 0 0 0 0 0 0
 0 0 0 0 0 0 0 0 0 0
 0 0 0 0 0 0 0 0 0 0
 0 0 0 0 0 0 0 0 0 0
 0 0 0 0 0 0 0 0 0 0
 0 0 0 0 0 0 0 0 0 0
 0 0 0 0 0 0 0 0 0 0
 0 0 0 0 0 0 0 0 0 0
 0 0 0 0 0 0 0 0 0 0
 0 0 0 0 0 0 0 0 0 0
 0 0 0 0 0 0 0 0 0 0
 0 0 0 0 0 0 0 0 0 0
 0 0 0 0 0 0 0 0 0 0
 0 0 0 0 0 0 0 0 0 0
 0 0 0 0 0 0 0 0 0 0
 0 0 0 0 0 0 0 0 0 0
 0 0 0 0 0 0 0 0 0 0
 0 0 0 0 0 0 0 0 0 0
 0 0 0 0 0 0 0 0 0 0
 0 0 0 0 0 0 0 0 0 0
 0 0 0 0 0 0 0 0 0 0
 0 0 0 0 0 0 0 0 0 0
 0 0 0 0 0
        </DataArray>
      </PointData>
      <Points>
        <DataArray type="Float32" NumberOfComponents="3" format="ascii">
  0.000000  0.500000  0.000000
  0.000000  0.490000  0.000000
  0.000000  0.480000  0.000000
  0.000000  0.470000  0.000000
  0.000000  0.460000  0.000000
  0.000000  0.450000  0.000000
  0.000000  0.440000  0.000000
  0.000000  0.430000  0.000000
  0.000000  0.420000  0.000000
  0.000000  0.410000  0.000000
  0.000000  0.400000  0.000000
  0.000000  0.390000  0.000000
  0.000000  0.380000  0.000000
  0.000000  0.370000  0.000000
  0.000000  0.360000  0.000000
  0.000000  0.350000  0.000000
  0.000000  0.340000  0.000000
  0.000000  0.330000  0.000000
  0.000000  0.320000  0.000000
  0.000000  0.310000  0.000000
  0.000000  0.300000  0.000000
  0.000000  0.290000  0.000000
  0.000000  0.280000  0.000000
  0.000000  0.270000  0.000000
  0.000000  0.260000  0.000000
  0.000000  0.250000  0.000000
  0.000000  0.240000  0.000000
  0.000000  0.230000  0.000000
  0.000000  0.220000  0.000000
  0.000000  0.210000  0.000000
  0.000000  0.200000  0.000000
  0.000000  0.190000  0.000000
  0.000000  0.180000  0.000000
  0.000000  0.170000  0.000000
  0.000000  0.160000  0.000000
  0.000000  0.150000  0.000000
  0.000000  0.140000  0.000000
  0.000000  0.130000  0.000000
  0.000000  0.120000  0.000000
  0.000000  0.110000  0.000000
  0.000000  0.100000  0.000000
  0.000000  0.090000  0.000000
  0.000000  0.080000  0.000000
  0.000000  0.070000  0.000000
  0.000000  0.060000  0.000000
  0.000000  0.050000  0.000000
  0.000000  0.040000  0.000000
  0.000000  0.030000  0.000000
  0.000000  0.020000  0.000000
  0.000000  0.010000  0.000000
 -0.100000  0.000000  0.000000
 -0.090000  0.000000  0.000000
 -0.080000  0.000000  0.000000
 -0.070000  0.000000  0.000000
 -0.060000  0.000000  0.000000
 -0.050000  0.000000  0.000000
 -0.040000  0.000000  0.000000
 -0.030000  0.000000  0.000000
 -0.020000  0.000000  0.000000
 -0.010000  0.000000  0.000000
 -0.000000  0.000000  0.000000
  0.010000  0.000000  0.000000
  0.020000  0.000000  0.000000
  0.030000  0.000000  0.000000
  0.040000  0.000000  0.000000
  0.050000  0.000000  0.000000
  0.060000  0.000000  0.000000
  0.070000  0.000000  0.000000
  0.080000  0.000000  0.000000
  0.090000  0.000000  0.000000
  0.100000  0.000000  0.000000
  0.110000  0.000000  0.000000
  0.120000  0.000000  0.000000
  0.130000  0.000000  0.000000
  0.140000  0.000000  0.000000
  0.150000  0.000000  0.000000
  0.160000  0.000000  0.000000
  0.170000  0.000000  0.000000
  0.180000  0.000000  0.000000
  0.190000  0.000000  0.000000
  0.200000  0.000000  0.000000
  0.210000  0.000000  0.000000
  0.220000  0.000000  0.000000
  0.230000  0.000000  0.000000
  0.240000  0.000000  0.000000
  0.250000  0.000000  0.000000
  0.260000  0.000000  0.000000
  0.270000  0.000000  0.000000
  0.280000  0.000000  0.000000
  0.290000  0.000000  0.000000
  0.300000  0.000000  0.000000
  0.310000  0.000000  0.000000
  0.320000  0.000000  0.000000
  0.330000  0.000000  0.000000
  0.340000  0.000000  0.000000
  0.350000  0.000000  0.000000
  0.360000  0.000000  0.000000
  0.370000  0.000000  0.000000
  0.380000  0.000000  0.000000
  0.390000  0.000000  0.000000
  0.400000  0.000000  0.000000
  0.410000  0.000000  0.000000
  0.420000  0.000000  0.000000
  0.430000  0.000000  0.000000
  0.440000  0.000000  0.000000
  0.450000  0.000000  0.000000
  0.460000  0.000000  0.000000
  0.470000  0.000000  0.000000
  0.480000  0.000000  0.000000
  0.490000  0.000000  0.000000
  0.500000  0.000000  0.000000
  0.510000  0.000000  0.000000
  0.520000  0.000000  0.000000
  0.530000  0.000000  0.000000
  0.540000  0.000000  0.000000
  0.550000  0.000000  0.000000
  0.560000  0.000000  0.000000
  0.570000  0.000000  0.000000
  0.580000  0.000000  0.000000
  0.590000  0.000000  0.000000
  0.600000  0.000000  0.000000
  0.610000  0.000000  0.000000
  0.620000  0.000000  0.000000
  0.630000  0.000000  0.000000
  0.640000  0.000000  0.000000
  0.650000  0.000000  0.000000
  0.660000  0.000000  0.000000
  0.670000  0.000000  0.000000
  0.680000  0.000000  0.000000
  0.690000  0.000000  0.000000
  0.700000  0.000000  0.000000
  0.710000  0.000000  0.000000
  0.720000  0.000000  0.000000
  0.730000  0.000000  0.000000
  0.740000  0.000000  0.000000
  0.750000  0.000000  0.000000
  0.760000  0.000000  0.000000
  0.770000  0.000000  0.000000
  0.780000  0.000000  0.000000
  0.790000  0.000000  0.000000
  0.800000  0.000000  0.000000
  0.700000  0.010000  0.000000
  0.700000  0.020000  0.000000
  0.700000  0.030000  0.000000
  0.700000  0.040000  0.000000
  0.700000  0.050000  0.000000
  0.700000  0.060000  0.000000
  0.700000  0.070000  0.000000
  0.700000  0.080000  0.000000
  0.700000  0.090000  0.000000
  0.700000  0.100000  0.000000
  0.700000  0.110000  0.000000
  0.700000  0.120000  0.000000
  0.700000  0.130000  0.000000
  0.700000  0.140000  0.000000
  0.700000  0.150000  0.000000
  0.700000  0.160000  0.000000
  0.700000  0.170000  0.000000
  0.700000  0.180000  0.000000
  0.700000  0.190000  0.000000
  0.700000  0.200000  0.000000
  0.700000  0.210000  0.000000
  0.700000  0.220000  0.000000
  0.700000  0.230000  0.000000
  0.700000  0.240000  0.000000
  0.700000  0.250000  0.000000
  0.700000  0.260000  0.000000
  0.700000  0.270000  0.000000
  0.700000  0.280000  0.000000
  0.700000  0.290000  0.000000
  0.700000  0.300000  0.000000
  0.700000  0.310000  0.000000
  0.700000  0.320000  0.000000
  0.700000  0.330000  0.000000
  0.700000  0.340000  0.000000
  0.700000  0.350000  0.000000
  0.700000  0.360000  0.000000
  0.700000  0.370000  0.000000
  0.700000  0.380000  0.000000
  0.700000  0.390000  0.000000
  0.700000  0.400000  0.000000
  0.700000  0.410000  0.000000
  0.700000  0.420000  0.000000
  0.700000  0.430000  0.000000
  0.700000  0.440000  0.000000
  0.700000  0.450000  0.000000
  0.700000  0.460000  0.000000
  0.700000  0.470000  0.000000
  0.700000  0.480000  0.000000
  0.700000  0.490000  0.000000
  0.700000  0.500000  0.000000
  0.010080  0.009375  0.000000
  0.010325  0.019492  0.000000
  0.024572  0.017548  0.000000
  0.011468  0.026680  0.000000
  0.020817  0.030406  0.000000
  0.009873  0.036250  0.000000
  0.019374  0.042538  0.000000
  0.009497  0.046058  0.000000
  0.015948  0.053982  0.000000
  0.009804  0.059251  0.000000
  0.011760  0.067436  0.000000
  0.011632  0.074468  0.000000
  0.010826  0.082155  0.000000
  0.011120  0.089949  0.000000
  0.011391  0.097493  0.000000
  0.010926  0.105304  0.000000
  0.011157  0.113007  0.000000
  0.011103  0.120750  0.000000
  0.011141  0.128564  0.000000
  0.010908  0.136285  0.000000
  0.010907  0.144193  0.000000
  0.010975  0.152077  0.000000
  0.010932  0.160064  0.000000
  0.011148  0.168059  0.000000
  0.010766  0.176304  0.000000
  0.011196  0.184588  0.000000
  0.010306  0.193022  0.000000
  0.011224  0.201771  0.000000
  0.009642  0.210625  0.000000
  0.012019  0.219372  0.000000
  0.029998  0.008544  0.000000
  0.019959  0.011470  0.000000
  0.037977  0.019530  0.000000
  0.027618  0.025884  0.000000
  0.037336  0.034006  0.000000
  0.028013  0.037284  0.000000
  0.035763  0.045391  0.000000
  0.025519  0.049336  0.000000
  0.030356  0.057404  0.000000
  0.025236  0.062401  0.000000
  0.026784  0.069806  0.000000
  0.025386  0.075871  0.000000
  0.026214  0.083277  0.000000
  0.025285  0.089204  0.000000
  0.025479  0.096884  0.000000
  0.025472  0.103032  0.000000
  0.025340  0.110403  0.000000
  0.025262  0.117121  0.000000
  0.025222  0.124213  0.000000
  0.025133  0.131463  0.000000
  0.024987  0.138758  0.000000
  0.024742  0.146361  0.000000
  0.024390  0.154224  0.000000
  0.023963  0.162419  0.000000
  0.023531  0.170970  0.000000
  0.023054  0.179864  0.000000
  0.022497  0.189009  0.000000
  0.022203  0.198285  0.000000
  0.021515  0.208045  0.000000
  0.021231  0.217945  0.000000
  0.048707  0.008774  0.000000
  0.040793  0.011839  0.000000
  0.053023  0.019834  0.000000
  0.041671  0.025010  0.000000
  0.053737  0.031128  0.000000
  0.045842  0.035931  0.000000
  0.052216  0.044021  0.000000
  0.042173  0.048514  0.000000
  0.045873  0.056190  0.000000
  0.041001  0.061956  0.000000
  0.042061  0.068961  0.000000
  0.041367  0.075194  0.000000
  0.040625  0.081770  0.000000
  0.040523  0.088392  0.000000
  0.040558  0.094975  0.000000
  0.040027  0.101699  0.000000
  0.039895  0.108674  0.000000
  0.039493  0.115764  0.000000
  0.039036  0.123253  0.000000
  0.038267  0.130950  0.000000
  0.037390  0.139012  0.000000
  0.036502  0.147340  0.000000
  0.035581  0.155948  0.000000
  0.034819  0.164684  0.000000
  0.034054  0.173445  0.000000
  0.033519  0.182299  0.000000
  0.032742  0.191190  0.000000
  0.032381  0.200320  0.000000
  0.031738  0.209485  0.000000
  0.031263  0.218208  0.000000
  0.065897  0.009561  0.000000
  0.059746  0.012347  0.000000
  0.071526  0.021954  0.000000
  0.059853  0.023253  0.000000
  0.070123  0.033567  0.000000
  0.062026  0.035211  0.000000
  0.066589  0.043931  0.000000
  0.058699  0.048226  0.000000
  0.061671  0.057202  0.000000
  0.056478  0.061228  0.000000
  0.058438  0.069225  0.000000
  0.056838  0.073931  0.000000
  0.057061  0.081812  0.000000
  0.056134  0.087135  0.000000
  0.055622  0.094722  0.000000
  0.055017  0.101100  0.000000
  0.053923  0.108640  0.000000
  0.052925  0.115694  0.000000
  0.051779  0.123411  0.000000
  0.050826  0.130975  0.000000
  0.049895  0.138856  0.000000
  0.049065  0.146613  0.000000
  0.048259  0.154509  0.000000
  0.047409  0.162546  0.000000
  0.046542  0.170856  0.000000
  0.045702  0.179419  0.000000
  0.044803  0.188342  0.000000
  0.043964  0.197466  0.000000
  0.042949  0.206942  0.000000
  0.042478  0.216709  0.000000
  0.082692  0.009965  0.000000
  0.076920  0.011793  0.000000
  0.088183  0.020104  0.000000
  0.076780  0.023971  0.000000
  0.087397  0.031047  0.000000
  0.082270  0.034555  0.000000
  0.078428  0.043001  0.000000
  0.081074  0.049025  0.000000
  0.072828  0.054203  0.000000
  0.076237  0.060522  0.000000
  0.073886  0.066723  0.000000
  0.073385  0.073420  0.000000
  0.072528  0.079734  0.000000
  0.071262  0.086673  0.000000
  0.070303  0.093489  0.000000
  0.068833  0.100410  0.000000
  0.067810  0.107595  0.000000
  0.066613  0.114821  0.000000
  0.065645  0.122163  0.000000
  0.064533  0.129552  0.000000
  0.063330  0.137208  0.000000
  0.061992  0.145108  0.000000
  0.060562  0.153433  0.000000
  0.059148  0.162019  0.000000
  0.057743  0.170840  0.000000
  0.056428  0.179829  0.000000
  0.055162  0.188895  0.000000
  0.054041  0.198118  0.000000
  0.053064  0.207495  0.000000
  0.052346  0.216490  0.000000
  0.101598  0.010475  0.000000
  0.095017  0.010259  0.000000
  0.104594  0.022440  0.000000
  0.095976  0.022118  0.000000
  0.106404  0.031054  0.000000
  0.097355  0.034652  0.000000
  0.099603  0.042984  0.000000
  0.092818  0.044989  0.000000
  0.094337  0.054199  0.000000
  0.090616  0.058200  0.000000
  0.090570  0.066452  0.000000
  0.088898  0.071606  0.000000
  0.087528  0.078959  0.000000
  0.086291  0.085117  0.000000
  0.084820  0.092299  0.000000
  0.083731  0.098954  0.000000
  0.082346  0.106216  0.000000
  0.081016  0.113121  0.000000
  0.079411  0.120568  0.000000
  0.077682  0.128197  0.000000
  0.075931  0.136122  0.000000
  0.074189  0.144207  0.000000
  0.072584  0.152414  0.000000
  0.071095  0.160686  0.000000
  0.069697  0.169092  0.000000
  0.068391  0.177660  0.000000
  0.067046  0.186543  0.000000
  0.065757  0.195682  0.000000
  0.064390  0.205088  0.000000
  0.063691  0.214703  0.000000
  0.119831  0.010862  0.000000
  0.112813  0.010131  0.000000
  0.123415  0.019705  0.000000
  0.114764  0.021678  0.000000
  0.126887  0.029496  0.000000
  0.116352  0.032344  0.000000
  0.114773  0.039965  0.000000
  0.113229  0.045744  0.000000
  0.108025  0.052137  0.000000
  0.109073  0.058490  0.000000
  0.106019  0.064850  0.000000
  0.104870  0.070682  0.000000
  0.103271  0.077924  0.000000
  0.101661  0.084012  0.000000
  0.100274  0.091002  0.000000
  0.098529  0.097553  0.000000
  0.096784  0.104713  0.000000
  0.094876  0.111737  0.000000
  0.092904  0.119382  0.000000
  0.091058  0.126753  0.000000
  0.089124  0.134579  0.000000
  0.087284  0.142422  0.000000
  0.085434  0.150591  0.000000
  0.083540  0.158970  0.000000
  0.081590  0.167710  0.000000
  0.079637  0.176704  0.000000
  0.077812  0.185822  0.000000
  0.076029  0.195151  0.000000
  0.074453  0.204700  0.000000
  0.073427  0.213904  0.000000
  0.139283  0.012968  0.000000
  0.132660  0.007954  0.000000
  0.143190  0.021138  0.000000
  0.133354  0.020402  0.000000
  0.146124  0.028706  0.000000
  0.133577  0.033584  0.000000
  0.135622  0.038976  0.000000
  0.127168  0.043843  0.000000
  0.128259  0.051390  0.000000
  0.123754  0.055611  0.000000
  0.123575  0.063039  0.000000
  0.120807  0.069050  0.000000
  0.119300  0.075670  0.000000
  0.117587  0.081886  0.000000
  0.115437  0.088857  0.000000
  0.113540  0.095624  0.000000
  0.111413  0.102572  0.000000
  0.109353  0.109817  0.000000
  0.107150  0.117064  0.000000
  0.104835  0.124605  0.000000
  0.102471  0.132410  0.000000
  0.100063  0.140415  0.000000
  0.097622  0.148749  0.000000
  0.095341  0.157211  0.000000
  0.093250  0.165811  0.000000
  0.091283  0.174573  0.000000
  0.089364  0.183597  0.000000
  0.087574  0.192780  0.000000
  0.085770  0.202273  0.000000
  0.084803  0.211866  0.000000
  0.159698  0.011138  0.000000
  0.151058  0.008243  0.000000
  0.164629  0.018997  0.000000
  0.153373  0.018916  0.000000
  0.164026  0.028373  0.000000
  0.155796  0.030356  0.000000
  0.151398  0.037899  0.000000
  0.148553  0.043742  0.000000
  0.142626  0.048887  0.000000
  0.142107  0.054939  0.000000
  0.139155  0.061923  0.000000
  0.137393  0.067312  0.000000
  0.135714  0.074240  0.000000
  0.132876  0.080165  0.000000
  0.131159  0.087388  0.000000
  0.128820  0.093382  0.000000
  0.126483  0.100672  0.000000
  0.123987  0.107577  0.000000
  0.121304  0.114822  0.000000
  0.118556  0.122434  0.000000
  0.115724  0.130227  0.000000
  0.113032  0.138264  0.000000
  0.110512  0.146436  0.000000
  0.108041  0.154876  0.000000
  0.105537  0.163617  0.000000
  0.103056  0.172559  0.000000
  0.100593  0.181767  0.000000
  0.098167  0.191243  0.000000
  0.096008  0.200930  0.000000
  0.094598  0.210348  0.000000
  0.182129  0.010507  0.000000
  0.172018  0.008606  0.000000
  0.186419  0.019544  0.000000
  0.174287  0.018049  0.000000
  0.182417  0.027993  0.000000
  0.175428  0.028797  0.000000
  0.170297  0.037700  0.000000
  0.166587  0.041792  0.000000
  0.161425  0.047943  0.000000
  0.159043  0.054177  0.000000
  0.156741  0.059695  0.000000
  0.155113  0.065612  0.000000
  0.151623  0.072266  0.000000
  0.150156  0.078113  0.000000
  0.147339  0.084665  0.000000
  0.144793  0.090998  0.000000
  0.141986  0.098162  0.000000
  0.139115  0.104644  0.000000
  0.135893  0.112273  0.000000
  0.132711  0.119640  0.000000
  0.129585  0.127401  0.000000
  0.126465  0.135416  0.000000
  0.123308  0.143697  0.000000
  0.120275  0.152249  0.000000
  0.117346  0.160975  0.000000
  0.114537  0.170009  0.000000
  0.111970  0.179184  0.000000
  0.109503  0.188610  0.000000
  0.107135  0.198302  0.000000
  0.105865  0.207867  0.000000
  0.206280  0.010476  0.000000
  0.193512  0.009158  0.000000
  0.208164  0.019283  0.000000
  0.195887  0.016141  0.000000
  0.202418  0.026128  0.000000
  0.196050  0.028885  0.000000
  0.188708  0.035445  0.000000
  0.187693  0.041581  0.000000
  0.179023  0.046648  0.000000
  0.177981  0.051432  0.000000
  0.175021  0.057719  0.000000
  0.172524  0.063870  0.000000
  0.169677  0.069797  0.000000
  0.167228  0.075425  0.000000
  0.163966  0.082244  0.000000
  0.161376  0.088201  0.000000
  0.157991  0.095126  0.000000
  0.154602  0.101813  0.000000
  0.150926  0.109174  0.000000
  0.147297  0.116452  0.000000
  0.143553  0.124334  0.000000
  0.139851  0.132346  0.000000
  0.136384  0.140624  0.000000
  0.133010  0.149222  0.000000
  0.129791  0.158025  0.000000
  0.126676  0.167098  0.000000
  0.123510  0.176528  0.000000
  0.120464  0.186091  0.000000
  0.117566  0.196057  0.000000
  0.115731  0.205668  0.000000
  0.232670  0.009816  0.000000
  0.217809  0.011568  0.000000
  0.232851  0.015623  0.000000
  0.219004  0.014444  0.000000
  0.225061  0.025834  0.000000
  0.216943  0.028531  0.000000
  0.208711  0.033403  0.000000
  0.208376  0.041227  0.000000
  0.199015  0.043465  0.000000
  0.197894  0.048849  0.000000
  0.193917  0.056320  0.000000
  0.191457  0.060736  0.000000
  0.187745  0.066558  0.000000
  0.185130  0.072927  0.000000
  0.181904  0.079040  0.000000
  0.178711  0.084815  0.000000
  0.174688  0.091994  0.000000
  0.170930  0.098240  0.000000
  0.166547  0.105665  0.000000
  0.162270  0.112967  0.000000
  0.158016  0.120821  0.000000
  0.153892  0.128744  0.000000
  0.149853  0.137134  0.000000
  0.145958  0.145678  0.000000
  0.142101  0.154567  0.000000
  0.138411  0.163805  0.000000
  0.134951  0.173173  0.000000
  0.131650  0.183000  0.000000
  0.128650  0.192903  0.000000
  0.126906  0.202723  0.000000
  0.266534  0.010526  0.000000
  0.247963  0.011137  0.000000
  0.255831  0.011647  0.000000
  0.242469  0.015911  0.000000
  0.248660  0.025404  0.000000
  0.238467  0.026782  0.000000
  0.228710  0.030061  0.000000
  0.230996  0.041161  0.000000
  0.220756  0.040116  0.000000
  0.218694  0.045794  0.000000
  0.214278  0.054145  0.000000
  0.211079  0.056835  0.000000
  0.206824  0.063507  0.000000
  0.204158  0.069420  0.000000
  0.200639  0.075186  0.000000
  0.196736  0.081205  0.000000
  0.192299  0.087933  0.000000
  0.187781  0.094399  0.000000
  0.182674  0.101736  0.000000
  0.177845  0.109045  0.000000
  0.173004  0.116804  0.000000
  0.168256  0.124786  0.000000
  0.163667  0.133015  0.000000
  0.159119  0.141708  0.000000
  0.154887  0.150584  0.000000
  0.150761  0.159971  0.000000
  0.146780  0.169609  0.000000
  0.142943  0.179552  0.000000
  0.139233  0.189871  0.000000
  0.137045  0.199556  0.000000
  0.295599  0.010337  0.000000
  0.278885  0.012613  0.000000
  0.282316  0.011627  0.000000
  0.264721  0.016507  0.000000
  0.273952  0.027107  0.000000
  0.262413  0.024028  0.000000
  0.251366  0.030062  0.000000
  0.254844  0.041290  0.000000
  0.242580  0.036713  0.000000
  0.240201  0.042757  0.000000
  0.236437  0.052088  0.000000
  0.231161  0.053602  0.000000
  0.226880  0.060357  0.000000
  0.224323  0.065750  0.000000
  0.220107  0.072068  0.000000
  0.215573  0.077127  0.000000
  0.210569  0.083943  0.000000
  0.205217  0.090345  0.000000
  0.199554  0.097603  0.000000
  0.194107  0.104676  0.000000
  0.188716  0.112504  0.000000
  0.183427  0.120254  0.000000
  0.178165  0.128579  0.000000
  0.173089  0.137158  0.000000
  0.167991  0.146259  0.000000
  0.163147  0.155680  0.000000
  0.158512  0.165419  0.000000
  0.154195  0.175574  0.000000
  0.150234  0.186004  0.000000
  0.147817  0.195993  0.000000
  0.325900  0.013258  0.000000
  0.310989  0.012111  0.000000
  0.315303  0.010725  0.000000
  0.297722  0.014634  0.000000
  0.294881  0.026619  0.000000
  0.287062  0.020865  0.000000
  0.278927  0.027848  0.000000
  0.277893  0.040151  0.000000
  0.263954  0.032161  0.000000
  0.265474  0.039865  0.000000
  0.260355  0.049081  0.000000
  0.252702  0.049901  0.000000
  0.248880  0.056434  0.000000
  0.245977  0.062902  0.000000
  0.240913  0.067619  0.000000
  0.235492  0.073255  0.000000
  0.230018  0.079400  0.000000
  0.223381  0.086365  0.000000
  0.217285  0.092976  0.000000
  0.211093  0.100259  0.000000
  0.205253  0.107765  0.000000
  0.199261  0.115521  0.000000
  0.193337  0.123483  0.000000
  0.187496  0.132175  0.000000
  0.181536  0.140899  0.000000
  0.176131  0.150693  0.000000
  0.170860  0.160479  0.000000
  0.165777  0.171131  0.000000
  0.161143  0.181965  0.000000
  0.158309  0.191974  0.000000
  0.358960  0.012151  0.000000
  0.348736  0.010861  0.000000
  0.334554  0.010625  0.000000
  0.324810  0.022631  0.000000
  0.321795  0.023914  0.000000
  0.305275  0.021232  0.000000
  0.310214  0.026863  0.000000
  0.305437  0.033674  0.000000
  0.288601  0.032623  0.000000
  0.293325  0.040537  0.000000
  0.287181  0.045457  0.000000
  0.275297  0.045709  0.000000
  0.274635  0.054121  0.000000
  0.268470  0.058502  0.000000
  0.263032  0.063517  0.000000
  0.256853  0.068306  0.000000
  0.250032  0.075477  0.000000
  0.242471  0.081644  0.000000
  0.235807  0.088560  0.000000
  0.229125  0.095374  0.000000
  0.222752  0.102974  0.000000
  0.216089  0.110277  0.000000
  0.209656  0.118243  0.000000
  0.203041  0.126655  0.000000
  0.196653  0.135358  0.000000
  0.189910  0.145021  0.000000
  0.183267  0.155215  0.000000
  0.177462  0.165939  0.000000
  0.172189  0.177141  0.000000
  0.169056  0.187219  0.000000
  0.384262  0.011666  0.000000
  0.381464  0.012770  0.000000
  0.368800  0.012331  0.000000
  0.353787  0.018814  0.000000
  0.352940  0.027175  0.000000
  0.340347  0.013467  0.000000
  0.338935  0.024385  0.000000
  0.337260  0.027982  0.000000
  0.318408  0.036319  0.000000
  0.323842  0.039540  0.000000
  0.311801  0.044786  0.000000
  0.303101  0.040656  0.000000
  0.300100  0.052363  0.000000
  0.292945  0.054334  0.000000
  0.285819  0.059823  0.000000
  0.278996  0.064813  0.000000
  0.269923  0.071481  0.000000
  0.262600  0.077547  0.000000
  0.255235  0.083955  0.000000
  0.248233  0.090707  0.000000
  0.241040  0.097913  0.000000
  0.233893  0.105048  0.000000
  0.226673  0.112822  0.000000
  0.219636  0.120929  0.000000
  0.212065  0.129332  0.000000
  0.205021  0.138798  0.000000
  0.196688  0.147794  0.000000
  0.189888  0.159841  0.000000
  0.183655  0.171681  0.000000
  0.179465  0.182067  0.000000
  0.416146  0.011323  0.000000
  0.412407  0.013872  0.000000
  0.399406  0.011388  0.000000
  0.395552  0.012370  0.000000
  0.387184  0.024509  0.000000
  0.369247  0.014927  0.000000
  0.368416  0.027513  0.000000
  0.370021  0.030907  0.000000
  0.354199  0.032267  0.000000
  0.350891  0.037731  0.000000
  0.339263  0.037577  0.000000
  0.333338  0.038664  0.000000
  0.328169  0.047643  0.000000
  0.318642  0.052403  0.000000
  0.310586  0.055620  0.000000
  0.301277  0.062189  0.000000
  0.291647  0.067610  0.000000
  0.284099  0.073585  0.000000
  0.276439  0.079682  0.000000
  0.268288  0.085777  0.000000
  0.260552  0.092915  0.000000
  0.252509  0.099787  0.000000
  0.244944  0.107337  0.000000
  0.237089  0.115200  0.000000
  0.229419  0.123360  0.000000
  0.221361  0.131942  0.000000
  0.212904  0.141306  0.000000
  0.203481  0.151938  0.000000
  0.194903  0.165314  0.000000
  0.190987  0.174989  0.000000
  0.445558  0.011043  0.000000
  0.434176  0.018272  0.000000
  0.431759  0.009952  0.000000
  0.424936  0.016845  0.000000
  0.426959  0.027652  0.000000
  0.405630  0.021150  0.000000
  0.401610  0.030781  0.000000
  0.398719  0.027416  0.000000
  0.386794  0.028415  0.000000
  0.381572  0.033287  0.000000
  0.371424  0.038137  0.000000
  0.363765  0.042462  0.000000
  0.354828  0.049373  0.000000
  0.344547  0.054411  0.000000
  0.336247  0.053938  0.000000
  0.323974  0.059795  0.000000
  0.315590  0.064686  0.000000
  0.307639  0.070341  0.000000
  0.298423  0.075847  0.000000
  0.289501  0.081385  0.000000
  0.280531  0.088017  0.000000
  0.272258  0.094934  0.000000
  0.263716  0.102003  0.000000
  0.255581  0.109752  0.000000
  0.247214  0.117607  0.000000
  0.238857  0.125974  0.000000
  0.230385  0.134797  0.000000
  0.220906  0.143816  0.000000
  0.209843  0.155402  0.000000
  0.200553  0.168073  0.000000
  0.463500  0.010173  0.000000
  0.459136  0.018679  0.000000
  0.453142  0.012976  0.000000
  0.441351  0.016554  0.000000
  0.440659  0.032775  0.000000
  0.428315  0.036575  0.000000
  0.415480  0.026546  0.000000
  0.408584  0.040585  0.000000
  0.413157  0.038694  0.000000
  0.400938  0.046018  0.000000
  0.395859  0.044770  0.000000
  0.385599  0.046895  0.000000
  0.375443  0.050194  0.000000
  0.366076  0.051613  0.000000
  0.353941  0.055813  0.000000
  0.347060  0.059563  0.000000
  0.337429  0.066794  0.000000
  0.327033  0.070909  0.000000
  0.316468  0.075038  0.000000
  0.307285  0.079745  0.000000
  0.298454  0.086121  0.000000
  0.289094  0.092940  0.000000
  0.280116  0.099694  0.000000
  0.271200  0.106993  0.000000
  0.262459  0.114567  0.000000
  0.253466  0.122600  0.000000
  0.244619  0.130636  0.000000
  0.234628  0.139663  0.000000
  0.224407  0.147828  0.000000
  0.212833  0.157405  0.000000
 -0.010000  0.500000  0.000000
 -0.010000  0.490000  0.000000
 -0.010000  0.480000  0.000000
 -0.010000  0.470000  0.000000
 -0.010000  0.460000  0.000000
 -0.010000  0.450000  0.000000
 -0.010000  0.440000  0.000000
 -0.010000  0.430000  0.000000
 -0.010000  0.420000  0.000000
 -0.010000  0.410000  0.000000
 -0.010000  0.400000  0.000000
 -0.010000  0.390000  0.000000
 -0.010000  0.380000  0.000000
 -0.010000  0.370000  0.000000
 -0.010000  0.360000  0.000000
 -0.010000  0.350000  0.000000
 -0.010000  0.340000  0.000000
 -0.010000  0.330000  0.000000
 -0.010000  0.320000  0.000000
 -0.010000  0.310000  0.000000
 -0.010000  0.300000  0.000000
 -0.010000  0.290000  0.000000
 -0.010000  0.280000  0.000000
 -0.010000  0.270000  0.000000
 -0.010000  0.260000  0.000000
 -0.010000  0.250000  0.000000
 -0.010000  0.240000  0.000000
 -0.010000  0.230000  0.000000
 -0.010000  0.220000  0.000000
 -0.010000  0.210000  0.000000
 -0.010000  0.200000  0.000000
 -0.010000  0.190000  0.000000
 -0.010000  0.180000  0.000000
 -0.010000  0.170000  0.000000
 -0.010000  0.160000  0.000000
 -0.010000  0.150000  0.000000
 -0.010000  0.140000  0.000000
 -0.010000  0.130000  0.000000
 -0.010000  0.120000  0.000000
 -0.010000  0.110000  0.000000
 -0.010000  0.100000  0.000000
 -0.010000  0.090000  0.000000
 -0.010000  0.080000  0.000000
 -0.010000  0.070000  0.000000
 -0.010000  0.060000  0.000000
 -0.010000  0.050000  0.000000
 -0.010000  0.040000  0.000000
 -0.010000  0.030000  0.000000
 -0.010000  0.020000  0.000000
 -0.010000  0.010000  0.000000
 -0.100000 -0.010000  0.000000
 -0.090000 -0.010000  0.000000
 -0.080000 -0.010000  0.000000
 -0.070000 -0.010000  0.000000
 -0.060000 -0.010000  0.000000
 -0.050000 -0.010000  0.000000
 -0.040000 -0.010000  0.000000
 -0.030000 -0.010000  0.000000