<?xml version="1.0" encoding="UTF-8"?>
<VTKFile type="UnstructuredGrid" version="1.0" byte_order="LittleEndian">
<UnstructuredGrid>
  <Piece NumberOfPoints="1555" NumberOfCells="1555">
      <PointData>
        <DataArray type="Int32" Name="Type" format="ascii">
 1 1 1 1 1 1 1 1 1 1
 1 1 1 1 1 1 1 1 1 1
 1 1 1 1 1 1 1 1 1 1
 1 1 1 1 1 1 1 1 1 1
 1 1 1 1 1 1 1 1 1 1
 1 1 1 1 1 1 1 1 1 1
 1 3 3 3 3 3 3 3 3 3
 3 3 3 3 3 3 3 3 3 3
 3 3 3 3 3 3 3 3 3 3
 3 3 3 3 3 3 3 3 3 3
 3 3 3 3 3 3 3 3 3 3
 3 3 3 3 3 3 3 3 3 3
 3 3 3 3 3 3 3 3 3 3
 1 1 1 1 1 1 1 1 1 1
 1 1 1 1 1 1 1 1 1 1
 1 1 1 1 1 1 1 1 1 1
 1 1 1 1 1 1 1 1 1 1
 1 1 1 1 1 1 1 1 1 1
 1 1 1 1 1 1 1 1 1 1
 1 2 2 2 2 2 2 2 2 2
 2 2 2 2 2 2 2 2 2 2
 2 2 2 2 2 2 2 2 2 2
 2 2 2 2 2 2 2 2 2 2
 2 2 2 2 2 2 2 2 2 2
 2 2 2 2 2 2 2 2 2 2
 2 2 2 2 2 2 2 2 2 2
 2 2 2 2 2 2 2 2 2 2
 2 2 2 2 2 2 2 2 2 2
 2 2 2 2 2 2 2 2 2 2
 2 2 2 2 2 2 2 2 2 2
 2 2 2 2 2 2 2 2 2 2
 2 2 2 2 2 2 2 2 2 2
 2 2 2 2 2 2 2 2 2 2
 2 2 2 2 2 2 2 2 2 2
 2 2 2 2 2 2 2 2 2 2
 2 2 2 2 2 2 2 2 2 2
 2 2 2 2 2 2 2 2 2 2
 2 2 2 2 2 2 2 2 2 2
 2 2 2 2 2 2 2 2 2 2
 2 2 2 2 2 2 2 2 2 2
 2 2 2 2 2 2 2 2 2 2
 2 2 2 2 2 2 2 2 2 2
 2 2 2 2 2 2 2 2 2 2
 2 2 2 2 2 2 2 2 2 2
 2 2 2 2 2 2 2 2 2 2
 2 2 2 2 2 2 2 2 2 2
 2 2 2 2 2 2 2 2 2 2
 2 2 2 2 2 2 2 2 2 2
 2 2 2 2 2 2 2 2 2 2
 2 2 2 2 2 2 2 2 2 2
 2 2 2 2 2 2 2 2 2 2
 2 2 2 2 2 2 2 2 2 2
 2 2 2 2 2 2 2 2 2 2
 2 2 2 2 2 2 2 2 2 2
 2 2 2 2 2 2 2 2 2 2
 2 2 2 2 2 2 2 2 2 2
 2 2 2 2 2 2 2 2 2 2
 2 2 2 2 2 2 2 2 2 2
 2 2 2 2 2 2 2 2 2 2
 2 2 2 2 2 2 2 2 2 2
 2 2 2 2 2 2 2 2 2 2
 2 2 2 2 2 2 2 2 2 2
 2 2 2 2 2 2 2 2 2 2
 2 2 2 2 2 2 2 2 2 2
 2 2 2 2 2 2 2 2 2 2
 2 2 2 2 2 2 2 2 2 2
 2 2 2 2 2 2 2 2 2 2
 2 2 2 2 2 2 2 2 2 2
 2 2 2 2 2 2 2 2 2 2
 2 2 2 2 2 2 2 2 2 2
 2 2 2 2 2 2 2 2 2 2
 2 2 2 2 2 2 2 2 2 2
 2 2 2 2 2 2 2 2 2 2
 2 2 2 2 2 2 2 2 2 2
 2 2 2 2 2 2 2 2 2 2
 2 2 2 2 2 2 2 2 2 2
 2 2 2 2 2 2 2 2 2 2
 2 2 2 2 2 2 2 2 2 2
 2 2 2 2 2 2 2 2 2 2
 2 0 0 0 0 0 0 0 0 0
 0 0 0 0 0 0 0 0 0 0
 0 0 0 0 0 0 0 0 0 0
 0 0 0 0 0 0 0 0 0 0
 0 0 0 0 0 0 0 0 0 0
 0 0 0 0 0 0 0 0 0 0
 0 0 0 0 0 0 0 0 0 0
 0 0 0 0 0 0 0 0 0 0
 0 0 0 0 0 0 0 0 0 0
 0 0 0 0 0 0 0 0 0 0
 0 0 0 0 0 0 0 0 0 0
 0 0 0 0 0 0 0 0 0 0
 0 0 0 0 0 0 0 0 0 0
 0 0 0 0 0 0 0 0 0 0
 0 0 0 0 0 0 0 0 0 0
 0 0 0 0 0 0 0 0 0 0
 0 0 0 0 0 0 0 0 0 0
 0 0 0 0 0 0 0 0 0 0
 0 0 0 0 0 0 0 0 0 0
 0 0 0 0 0 0 0 0 0 0
 0 0 0 0 0 0 0 0 0 0
 0 0 0 0 0 0 0 0 0 0
 0 0 0 0 0 0 0 0 0 0
 0 0 0 0 0 0 0 0 0 0
 0 0 0 0 0 0 0 0 0 0
 0 0 0 0 0 0 0 0 0 0
 0 0 0 0 0 0 0 0 0 0
 0 0 0 0 0 0 0 0 0 0
 0 0 0 0 0 0 0 0 0 0
 0 0 0 0 0 0 0 0 0 0
 0 0 0 0 0 0 0 0 0 0
 0 0 0 0 0 0 0 0 0 0
 0 0 0 0 0 0 0 0 0 0
 0 0 0 0 0 0 0 0 0 0
 0 0 0 0 0 0 0 0 0 0
 0 0 0 0 0 0 0 0 0 0
 0 0 0 0 0 0 0 0 0 0
 0 0 0 0 0 0 0 0 0 0
 0 0 0 0 0 0 0 0 0 0
 0 0 0 0 0 0 0 0 0 0
 0 0 0 0 0 0 0 0 0 0
 0 0 0 0 0 0 0 0 0 0
 0 0 0 0 0 0 0 0 0 0
 0 0 0 0 0 0 0 0 0 0
 0 0 0 0 0 0 0 0 0 0
 0 0 0 0 0 0 0 0 0 0
 0 0 0 0 0 0 0 0 0 0
 0 0 0 0 0 0 0 0 0 0
 0 0 0 0 0 0 0 0 0 0
 0 0 0 0 0 0 0 0 0 0
 0 0 0 0 0 0 0 0 0 0
 0 0 0 0 0 0 0 0 0 0
 0 0 0 0 0 0 0 0 0 0
 0 0 0 0 0 0 0 0 0 0
 0 0 0 0 0 0 0 0 0 0
 0 0 0 0 0 0 0 0 0 0
 0 0 0 0 0 0 0 0 0 0
 0 0 0 0 0 0 0 0 0 0
 0 0 0 0 0 0 0 0 0 0
 0 0 0 0 0 0 0 0 0 0
 0 0 0 0 0 0 0 0 0 0
 0 0 0 0 0 0 0 0 0 0
 0 0 0 0 0 0 0 0 0 0
 0 0 0 0 0 0 0 0 0 0
 0 0 0 0 0 0 0 0 0 0
 0 0 0 0 0 0 0 0 0 0
 0 0 0 0 0 0 0 0 0 0
 0 0 0 0 0 0 0 0 0 0
 0 0 0 0 0 0 0 0 0 0
 0 0 0 0 0 0 0 0 0 0
 0 0 0 0 0 0 0 0 0 0
 0 0 0 0 0 0 0 0 0 0
 0 0 0 0 0 0 0 0 0 0
 0 0 0 0 0 0 0 0 0 0
 0 0 0 0 0 0 0 0 0 0
 0 0 0 0 0 0 0 0 0 0
 0 0 0 0 0
        </DataArray>
      </PointData>
      <Points>
        <DataArray type="Float32" NumberOfComponents="3" format="ascii">
  0.000000  0.500000  0.000000
  0.000000  0.490000  0.000000
  0.000000  0.480000  0.000000
  0.000000  0.470000  0.000000
  0.000000  0.460000  0.000000
  0.000000  0.450000  0.000000
  0.000000  0.440000  0.000000
  0.000000  0.430000  0.000000
  0.000000  0.420000  0.000000
  0.000000  0.410000  0.000000
  0.000000  0.400000  0.000000
  0.000000  0.390000  0.000000
  0.000000  0.380000  0.000000
  0.000000  0.370000  0.000000
  0.000000  0.360000  0.000000
  0.000000  0.350000  0.000000
  0.000000  0.340000  0.000000
  0.000000  0.330000  0.000000
  0.000000  0.320000  0.000000
  0.000000  0.310000  0.000000
  0.000000  0.300000  0.000000
  0.000000  0.290000  0.000000
  0.000000  0.280000  0.000000
  0.000000  0.270000  0.000000
  0.000000  0.260000  0.000000
  0.000000  0.250000  0.000000
  0.000000  0.240000  0.000000
  0.000000  0.230000  0.000000
  0.000000  0.220000  0.000000
  0.000000  0.210000  0.000000
  0.000000  0.200000  0.000000
  0.000000  0.190000  0.000000
  0.000000  0.180000  0.000000
  0.000000  0.170000  0.000000
  0.000000  0.160000  0.000000
  0.000000  0.150000  0.000000
  0.000000  0.140000  0.000000
  0.000000  0.130000  0.000000
  0.000000  0.120000  0.000000
  0.000000  0.110000  0.000000
  0.000000  0.100000  0.000000
  0.000000  0.090000  0.000000
  0.000000  0.080000  0.000000
  0.000000  0.070000  0.000000
  0.000000  0.060000  0.000000
  0.000000  0.050000  0.000000
  0.000000  0.040000  0.000000
  0.000000  0.030000  0.000000
  0.000000  0.020000  0.000000
  0.000000  0.010000  0.000000
 -0.100000  0.000000  0.000000
 -0.090000  0.000000  0.000000
 -0.080000  0.000000  0.000000
 -0.070000  0.000000  0.000000
 -0.060000  0.000000  0.000000
 -0.050000  0.000000  0.000000
 -0.040000  0.000000  0.000000
 -0.030000  0.000000  0.000000
 -0.020000  0.000000  0.000000
 -0.010000  0.000000  0.000000
 -0.000000  0.000000  0.000000
  0.010000  0.000000  0.000000
  0.020000  0.000000  0.000000
  0.030000  0.000000  0.000000
  0.040000  0.000000  0.000000
  0.050000  0.000000  0.000000
  0.060000  0.000000  0.000000
  0.070000  0.000000  0.000000
  0.080000  0.000000  0.000000
  0.090000  0.000000  0.000000
  0.100000  0.000000  0.000000
  0.110000  0.000000  0.000000
  0.120000  0.000000  0.000000
  0.130000  0.000000  0.000000
  0.140000  0.000000  0.000000
  0.150000  0.000000  0.000000
  0.160000  0.000000  0.000000
  0.170000  0.000000  0.000000
  0.180000  0.000000  0.000000
  0.190000  0.000000  0.000000
  0.200000  0.000000  0.000000
  0.210000  0.000000  0.000000
  0.220000  0.000000  0.000000
  0.230000  0.000000  0.000000
  0.240000  0.000000  0.000000
  0.250000  0.000000  0.000000
  0.260000  0.000000  0.000000
  0.270000  0.000000  0.000000
  0.280000  0.000000  0.000000
  0.290000  0.000000  0.000000
  0.300000  0.000000  0.000000
  0.310000  0.000000  0.000000
  0.320000  0.000000  0.000000
  0.330000  0.000000  0.000000
  0.340000  0.000000  0.000000
  0.350000  0.000000  0.000000
  0.360000  0.000000  0.000000
  0.370000  0.000000  0.000000
  0.380000  0.000000  0.000000
  0.390000  0.000000  0.000000
  0.400000  0.000000  0.000000
  0.410000  0.000000  0.000000
  0.420000  0.000000  0.000000
  0.430000  0.000000  0.000000
  0.440000  0.000000  0.000000
  0.450000  0.000000  0.000000
  0.460000  0.000000  0.000000
  0.470000  0.000000  0.000000
  0.480000  0.000000  0.000000
  0.490000  0.000000  0.000000
  0.500000  0.000000  0.000000
  0.510000  0.000000  0.000000
  0.520000  0.000000  0.000000
  0.530000  0.000000  0.000000
  0.540000  0.000000  0.000000
  0.550000  0.000000  0.000000
  0.560000  0.000000  0.000000
  0.570000  0.000000  0.000000
  0.580000  0.000000  0.000000
  0.590000  0.000000  0.000000
  0.600000  0.000000  0.000000
  0.610000  0.000000  0.000000
  0.620000  0.000000  0.000000
  0.630000  0.000000  0.000000
  0.640000  0.000000  0.000000
  0.650000  0.000000  0.000000
  0.660000  0.000000  0.000000
  0.670000  0.000000  0.000000
  0.680000  0.000000  0.000000
  0.690000  0.000000  0.000000
  0.700000  0.000000  0.000000
  0.710000  0.000000  0.000000
  0.720000  0.000000  0.000000
  0.730000  0.000000  0.000000
  0.740000  0.000000  0.000000
  0.750000  0.000000  0.000000
  0.760000  0.000000  0.000000
  0.770000  0.000000  0.000000
  0.780000  0.000000  0.000000
  0.790000  0.000000  0.000000
  0.800000  0.000000  0.000000
  0.700000  0.010000  0.000000
  0.700000  0.020000  0.000000
  0.700000  0.030000  0.000000
  0.700000  0.040000  0.000000
  0.700000  0.050000  0.000000
  0.700000  0.060000  0.000000
  0.700000  0.070000  0.000000
  0.700000  0.080000  0.000000
  0.700000  0.090000  0.000000
  0.700000  0.100000  0.000000
  0.700000  0.110000  0.000000
  0.700000  0.120000  0.000000
  0.700000  0.130000  0.000000
  0.700000  0.140000  0.000000
  0.700000  0.150000  0.000000
  0.700000  0.160000  0.000000
  0.700000  0.170000  0.000000
  0.700000  0.180000  0.000000
  0.700000  0.190000  0.000000
  0.700000  0.200000  0.000000
  0.700000  0.210000  0.000000
  0.700000  0.220000  0.000000
  0.700000  0.230000  0.000000
  0.700000  0.240000  0.000000
  0.700000  0.250000  0.000000
  0.700000  0.260000  0.000000
  0.700000  0.270000  0.000000
  0.700000  0.280000  0.000000
  0.700000  0.290000  0.000000
  0.700000  0.300000  0.000000
  0.700000  0.310000  0.000000
  0.700000  0.320000  0.000000
  0.700000  0.330000  0.000000
  0.700000  0.340000  0.000000
  0.700000  0.350000  0.000000
  0.700000  0.360000  0.000000
  0.700000  0.370000  0.000000
  0.700000  0.380000  0.000000
  0.700000  0.390000  0.000000
  0.700000  0.400000  0.000000
  0.700000  0.410000  0.000000
  0.700000  0.420000  0.000000
  0.700000  0.430000  0.000000
  0.700000  0.440000  0.000000
  0.700000  0.450000  0.000000
  0.700000  0.460000  0.000000
  0.700000  0.470000  0.000000
  0.700000  0.480000  0.000000
  0.700000  0.490000  0.000000
  0.700000  0.500000  0.000000
  0.011910  0.008519  0.000000
  0.009709  0.016872  0.000000
  0.018293  0.022406  0.000000
  0.009209  0.028073  0.000000
  0.016735  0.034719  0.000000
  0.009303  0.040312  0.000000
  0.014362  0.047976  0.000000
  0.010038  0.054453  0.000000
  0.011943  0.062435  0.000000
  0.011285  0.069759  0.000000
  0.011137  0.077523  0.000000
  0.011333  0.085137  0.000000
  0.011289  0.092760  0.000000
  0.011239  0.100481  0.000000
  0.011250  0.108167  0.000000
  0.011226  0.115922  0.000000
  0.011237  0.123718  0.000000
  0.011206  0.131573  0.000000
  0.011167  0.139525  0.000000
  0.011064  0.147548  0.000000
  0.010994  0.155697  0.000000
  0.010922  0.163979  0.000000
  0.010820  0.172415  0.000000
  0.010724  0.180973  0.000000
  0.010557  0.189722  0.000000
  0.010524  0.198652  0.000000
  0.010262  0.207719  0.000000
  0.010541  0.216948  0.000000
  0.009777  0.226365  0.000000
  0.010944  0.235942  0.000000
  0.028910  0.009106  0.000000
  0.022281  0.012899  0.000000
  0.031513  0.021748  0.000000
  0.025535  0.028243  0.000000
  0.030780  0.036620  0.000000
  0.024689  0.042040  0.000000
  0.027436  0.049818  0.000000
  0.025198  0.056220  0.000000
  0.025744  0.063406  0.000000
  0.025399  0.069860  0.000000
  0.025621  0.077394  0.000000
  0.025412  0.083695  0.000000
  0.025354  0.091229  0.000000
  0.025219  0.098098  0.000000
  0.025116  0.105503  0.000000
  0.024933  0.112872  0.000000
  0.024684  0.120461  0.000000
  0.024404  0.128225  0.000000
  0.024122  0.136216  0.000000
  0.023820  0.144398  0.000000
  0.023487  0.152778  0.000000
  0.023125  0.161294  0.000000
  0.022749  0.170019  0.000000
  0.022400  0.178900  0.000000
  0.022055  0.187913  0.000000
  0.021734  0.197104  0.000000
  0.021311  0.206469  0.000000
  0.021151  0.215897  0.000000
  0.020691  0.225533  0.000000
  0.020618  0.235285  0.000000
  0.044342  0.008710  0.000000
  0.037584  0.014445  0.000000
  0.046702  0.021428  0.000000
  0.039364  0.027859  0.000000
  0.044485  0.034567  0.000000
  0.040911  0.041534  0.000000
  0.041595  0.048348  0.000000
  0.040601  0.055052  0.000000
  0.040646  0.061799  0.000000
  0.040227  0.068739  0.000000
  0.039974  0.075435  0.000000
  0.039636  0.082835  0.000000
  0.039309  0.089959  0.000000
  0.038757  0.097509  0.000000
  0.038283  0.105090  0.000000
  0.037718  0.112889  0.000000
  0.037181  0.120859  0.000000
  0.036624  0.128890  0.000000
  0.036057  0.137038  0.000000
  0.035487  0.145310  0.000000
  0.034934  0.153702  0.000000
  0.034412  0.162215  0.000000
  0.033889  0.170844  0.000000
  0.033363  0.179646  0.000000
  0.032851  0.188532  0.000000
  0.032385  0.197574  0.000000
  0.031848  0.206772  0.000000
  0.031423  0.216161  0.000000
  0.030950  0.225743  0.000000
  0.030632  0.235217  0.000000
  0.059904  0.008899  0.000000
  0.052955  0.014076  0.000000
  0.061574  0.022111  0.000000
  0.054779  0.027189  0.000000
  0.058635  0.035110  0.000000
  0.056538  0.040564  0.000000
  0.056520  0.048439  0.000000
  0.055674  0.054038  0.000000
  0.055349  0.061961  0.000000
  0.054582  0.067951  0.000000
  0.054035  0.075934  0.000000
  0.053359  0.082414  0.000000
  0.052638  0.090244  0.000000
  0.052048  0.097303  0.000000
  0.051370  0.105011  0.000000
  0.050753  0.112445  0.000000
  0.050056  0.120159  0.000000
  0.049356  0.127945  0.000000
  0.048660  0.135899  0.000000
  0.047954  0.144007  0.000000
  0.047211  0.152310  0.000000
  0.046466  0.160769  0.000000
  0.045722  0.169383  0.000000
  0.044991  0.178181  0.000000
  0.044245  0.187162  0.000000
  0.043549  0.196308  0.000000
  0.042865  0.205593  0.000000
  0.042226  0.215053  0.000000
  0.041510  0.224675  0.000000
  0.041163  0.234421  0.000000
  0.075320  0.008832  0.000000
  0.068110  0.014117  0.000000
  0.077252  0.021063  0.000000
  0.070631  0.026969  0.000000
  0.074066  0.033918  0.000000
  0.071957  0.040331  0.000000
  0.071051  0.047029  0.000000
  0.070881  0.054173  0.000000
  0.069527  0.060547  0.000000
  0.069064  0.067990  0.000000
  0.068175  0.074603  0.000000
  0.067398  0.082023  0.000000
  0.066670  0.089006  0.000000
  0.065774  0.096432  0.000000
  0.064925  0.103809  0.000000
  0.063977  0.111430  0.000000
  0.063042  0.119215  0.000000
  0.062058  0.127134  0.000000
  0.061022  0.135258  0.000000
  0.060008  0.143482  0.000000
  0.058994  0.151857  0.000000
  0.057998  0.160404  0.000000
  0.057018  0.169094  0.000000
  0.056097  0.177909  0.000000
  0.055175  0.186878  0.000000
  0.054272  0.196008  0.000000
  0.053372  0.205294  0.000000
  0.052538  0.214733  0.000000
  0.051741  0.224358  0.000000
  0.051223  0.233946  0.000000
  0.091705  0.008927  0.000000
  0.083953  0.013519  0.000000
  0.093586  0.021793  0.000000
  0.085710  0.026032  0.000000
  0.089745  0.034197  0.000000
  0.086698  0.038869  0.000000
  0.086411  0.047353  0.000000
  0.085329  0.052434  0.000000
  0.084544  0.060626  0.000000
  0.083507  0.066485  0.000000
  0.082545  0.074227  0.000000
  0.081559  0.080764  0.000000
  0.080444  0.088401  0.000000
  0.079395  0.095451  0.000000
  0.078243  0.103112  0.000000
  0.077091  0.110608  0.000000
  0.075901  0.118381  0.000000
  0.074702  0.126188  0.000000
  0.073529  0.134191  0.000000
  0.072316  0.142344  0.000000
  0.071144  0.150649  0.000000
  0.069983  0.159105  0.000000
  0.068816  0.167727  0.000000
  0.067649  0.176545  0.000000
  0.066524  0.185494  0.000000
  0.065429  0.194642  0.000000
  0.064349  0.203961  0.000000
  0.063309  0.213453  0.000000
  0.062270  0.223108  0.000000
  0.061722  0.232862  0.000000
  0.107889  0.008864  0.000000
  0.099205  0.013625  0.000000
  0.110330  0.020614  0.000000
  0.101749  0.025805  0.000000
  0.105649  0.032941  0.000000
  0.102271  0.038875  0.000000
  0.101534  0.045819  0.000000
  0.100563  0.052229  0.000000
  0.099168  0.059237  0.000000
  0.098290  0.065914  0.000000
  0.096929  0.072954  0.000000
  0.095792  0.079945  0.000000
  0.094499  0.087118  0.000000
  0.093197  0.094333  0.000000
  0.091858  0.101803  0.000000
  0.090481  0.109223  0.000000
  0.089065  0.117013  0.000000
  0.087614  0.124824  0.000000
  0.086148  0.132904  0.000000
  0.084678  0.141058  0.000000
  0.083198  0.149451  0.000000
  0.081739  0.157974  0.000000
  0.080319  0.166655  0.000000
  0.078932  0.175509  0.000000
  0.077551  0.184545  0.000000
  0.076225  0.193730  0.000000
  0.074938  0.203080  0.000000
  0.073689  0.212605  0.000000
  0.072505  0.222313  0.000000
  0.071780  0.231991  0.000000
  0.125664  0.008991  0.000000
  0.115405  0.012845  0.000000
  0.127520  0.021075  0.000000
  0.117685  0.024850  0.000000
  0.121552  0.032778  0.000000
  0.117800  0.037537  0.000000
  0.117178  0.045393  0.000000
  0.115588  0.050920  0.000000
  0.114533  0.058439  0.000000
  0.112903  0.064433  0.000000
  0.111713  0.071956  0.000000
  0.110200  0.078523  0.000000
  0.108706  0.085800  0.000000
  0.107212  0.093008  0.000000
  0.105540  0.100322  0.000000
  0.103914  0.107956  0.000000
  0.102199  0.115579  0.000000
  0.100501  0.123427  0.000000
  0.098760  0.131447  0.000000
  0.097050  0.139603  0.000000
  0.095392  0.147926  0.000000
  0.093720  0.156420  0.000000
  0.092089  0.165096  0.000000
  0.090487  0.173930  0.000000
  0.088921  0.182932  0.000000
  0.087377  0.192141  0.000000
  0.085872  0.201512  0.000000
  0.084424  0.211072  0.000000
  0.083019  0.220802  0.000000
  0.082249  0.230581  0.000000
  0.143480  0.009014  0.000000
  0.131505  0.012559  0.000000
  0.145196  0.020591  0.000000
  0.134404  0.024088  0.000000
  0.137536  0.031787  0.000000
  0.134247  0.036776  0.000000
  0.132684  0.044201  0.000000
  0.131412  0.049957  0.000000
  0.129597  0.057129  0.000000
  0.128221  0.063374  0.000000
  0.126519  0.070592  0.000000
  0.124836  0.076931  0.000000
  0.123176  0.084501  0.000000
  0.121242  0.091256  0.000000
  0.119463  0.098824  0.000000
  0.117517  0.106151  0.000000
  0.115543  0.113821  0.000000
  0.113571  0.121693  0.000000
  0.111599  0.129626  0.000000
  0.109633  0.137829  0.000000
  0.107650  0.146196  0.000000
  0.105732  0.154697  0.000000
  0.103809  0.163415  0.000000
  0.101916  0.172309  0.000000
  0.100074  0.181375  0.000000
  0.098277  0.190636  0.000000
  0.096540  0.200074  0.000000
  0.094849  0.209698  0.000000
  0.093247  0.219528  0.000000
  0.092299  0.229288  0.000000
  0.161933  0.009621  0.000000
  0.149438  0.011490  0.000000
  0.161848  0.020723  0.000000
  0.152133  0.023023  0.000000
  0.154535  0.031019  0.000000
  0.150983  0.035790  0.000000
  0.148794  0.043148  0.000000
  0.147183  0.048779  0.000000
  0.145308  0.055757  0.000000
  0.143660  0.061904  0.000000
  0.141684  0.068911  0.000000
  0.139878  0.075509  0.000000
  0.137736  0.082670  0.000000
  0.135794  0.089452  0.000000
  0.133566  0.096978  0.000000
  0.131302  0.104229  0.000000
  0.129111  0.111971  0.000000
  0.126803  0.119672  0.000000
  0.124498  0.127700  0.000000
  0.122256  0.135849  0.000000
  0.120020  0.144159  0.000000
  0.117801  0.152720  0.000000
  0.115656  0.161403  0.000000
  0.113535  0.170311  0.000000
  0.111456  0.179408  0.000000
  0.109435  0.188685  0.000000
  0.107464  0.198167  0.000000
  0.105574  0.207832  0.000000
  0.103758  0.217683  0.000000
  0.102735  0.227528  0.000000
  0.180442  0.010629  0.000000
  0.168709  0.010411  0.000000
  0.179434  0.020028  0.000000
  0.170846  0.021557  0.000000
  0.171987  0.030413  0.000000
  0.168211  0.034941  0.000000
  0.165083  0.041769  0.000000
  0.163483  0.047433  0.000000
  0.161356  0.054355  0.000000
  0.159514  0.060349  0.000000
  0.157218  0.067198  0.000000
  0.155180  0.073582  0.000000
  0.152806  0.080662  0.000000
  0.150419  0.087483  0.000000
  0.147899  0.094835  0.000000
  0.145453  0.102016  0.000000
  0.142771  0.109741  0.000000
  0.140184  0.117399  0.000000
  0.137651  0.125383  0.000000
  0.135054  0.133546  0.000000
  0.132544  0.141874  0.000000
  0.130067  0.150415  0.000000
  0.127586  0.159175  0.000000
  0.125173  0.168099  0.000000
  0.122796  0.177251  0.000000
  0.120477  0.186604  0.000000
  0.118228  0.196156  0.000000
  0.116042  0.205924  0.000000
  0.113987  0.215902  0.000000
  0.112789  0.225758  0.000000
  0.200379  0.011319  0.000000
  0.189022  0.008707  0.000000
  0.198578  0.018406  0.000000
  0.188545  0.021081  0.000000
  0.189826  0.029426  0.000000
  0.186185  0.033531  0.000000
  0.181799  0.040528  0.000000
  0.180315  0.046132  0.000000
  0.178120  0.052586  0.000000
  0.175922  0.058547  0.000000
  0.173282  0.065304  0.000000
  0.170978  0.071568  0.000000
  0.168149  0.078508  0.000000
  0.165612  0.085114  0.000000
  0.162669  0.092453  0.000000
  0.159729  0.099647  0.000000
  0.156841  0.107164  0.000000
  0.153896  0.114898  0.000000
  0.150948  0.122899  0.000000
  0.148086  0.130930  0.000000
  0.145215  0.139338  0.000000
  0.142402  0.147852  0.000000
  0.139637  0.156593  0.000000
  0.136914  0.165585  0.000000
  0.134255  0.174753  0.000000
  0.131660  0.184174  0.000000
  0.129160  0.193782  0.000000
  0.126755  0.203618  0.000000
  0.124463  0.213651  0.000000
  0.123160  0.223599  0.000000
  0.224917  0.011192  0.000000
  0.211315  0.009455  0.000000
  0.218029  0.016350  0.000000
  0.206942  0.020421  0.000000
  0.209367  0.028049  0.000000
  0.204420  0.032763  0.000000
  0.199211  0.038805  0.000000
  0.198436  0.044047  0.000000
  0.195496  0.050628  0.000000
  0.192764  0.056451  0.000000
  0.189902  0.062987  0.000000
  0.187321  0.069072  0.000000
  0.184213  0.075826  0.000000
  0.181107  0.082605  0.000000
  0.177726  0.089762  0.000000
  0.174554  0.096710  0.000000
  0.171059  0.104537  0.000000
  0.167826  0.112033  0.000000
  0.164521  0.119974  0.000000
  0.161264  0.128126  0.000000
  0.158115  0.136403  0.000000
  0.154946  0.144990  0.000000
  0.151863  0.153730  0.000000
  0.148806  0.162757  0.000000
  0.145819  0.171975  0.000000
  0.142898  0.181460  0.000000
  0.140057  0.191180  0.000000
  0.137319  0.201129  0.000000
  0.134732  0.211330  0.000000
  0.133240  0.221311  0.000000
  0.249134  0.010263  0.000000
  0.235549  0.010093  0.000000
  0.239550  0.016957  0.000000
  0.225213  0.019739  0.000000
  0.229751  0.028230  0.000000
  0.222676  0.031386  0.000000
  0.217873  0.036099  0.000000
  0.217537  0.042935  0.000000
  0.213197  0.048934  0.000000
  0.210314  0.053897  0.000000
  0.207310  0.060571  0.000000
  0.204376  0.066304  0.000000
  0.200578  0.073251  0.000000
  0.197194  0.079578  0.000000
  0.193375  0.086628  0.000000
  0.189497  0.093901  0.000000
  0.185849  0.101280  0.000000
  0.182027  0.108975  0.000000
  0.178401  0.116864  0.000000
  0.174805  0.124933  0.000000
  0.171229  0.133312  0.000000
  0.167741  0.141768  0.000000
  0.164268  0.150609  0.000000
  0.160871  0.159571  0.000000
  0.157505  0.168887  0.000000
  0.154238  0.178409  0.000000
  0.151057  0.188220  0.000000
  0.148019  0.198273  0.000000
  0.145152  0.208551  0.000000
  0.143523  0.218653  0.000000
  0.273601  0.009732  0.000000
  0.260192  0.011065  0.000000
  0.263370  0.015667  0.000000
  0.246965  0.017851  0.000000
  0.251373  0.029733  0.000000
  0.241303  0.027436  0.000000
  0.238566  0.034564  0.000000
  0.237709  0.041602  0.000000
  0.231614  0.045824  0.000000
  0.228915  0.051215  0.000000
  0.225917  0.057747  0.000000
  0.222133  0.063452  0.000000
  0.217886  0.070097  0.000000
  0.214005  0.076263  0.000000
  0.209273  0.083530  0.000000
  0.205214  0.090333  0.000000
  0.200749  0.098121  0.000000
  0.196688  0.105431  0.000000
  0.192561  0.113525  0.000000
  0.188573  0.121488  0.000000
  0.184639  0.129804  0.000000
  0.180746  0.138350  0.000000
  0.176940  0.147078  0.000000
  0.173136  0.156137  0.000000
  0.169407  0.165376  0.000000
  0.165710  0.175007  0.000000
  0.162157  0.184865  0.000000
  0.158715  0.195105  0.000000
  0.155494  0.205612  0.000000
  0.153621  0.215803  0.000000
  0.300734  0.012717  0.000000
  0.287848  0.010070  0.000000
  0.282260  0.014640  0.000000
  0.272591  0.020612  0.000000
  0.274131  0.030585  0.000000
  0.261124  0.024338  0.000000
  0.261288  0.032141  0.000000
  0.258418  0.038687  0.000000
  0.251267  0.041918  0.000000
  0.249121  0.048568  0.000000
  0.245928  0.054524  0.000000
  0.240573  0.060049  0.000000
  0.236470  0.065985  0.000000
  0.231048  0.072924  0.000000
  0.226179  0.079472  0.000000
  0.221033  0.086935  0.000000
  0.216398  0.094216  0.000000
  0.211627  0.101895  0.000000
  0.207172  0.109719  0.000000
  0.202693  0.117792  0.000000
  0.198354  0.126084  0.000000
  0.194115  0.134599  0.000000
  0.189879  0.143352  0.000000
  0.185742  0.152347  0.000000
  0.181584  0.161599  0.000000
  0.177511  0.171232  0.000000
  0.173461  0.181184  0.000000
  0.169550  0.191528  0.000000
  0.165891  0.202164  0.000000
  0.163882  0.212432  0.000000
  0.324859  0.010929  0.000000
  0.318062  0.013135  0.000000
  0.306330  0.009772  0.000000
  0.301800  0.020496  0.000000
  0.297430  0.026467  0.000000
  0.287163  0.020637  0.000000
  0.284099  0.029745  0.000000
  0.282648  0.034549  0.000000
  0.273500  0.041047  0.000000
  0.271966  0.045554  0.000000
  0.265896  0.052496  0.000000
  0.260948  0.055460  0.000000
  0.255023  0.062909  0.000000
  0.249106  0.068872  0.000000
  0.243101  0.075991  0.000000
  0.237671  0.082838  0.000000
  0.232299  0.090494  0.000000
  0.227125  0.097758  0.000000
  0.222074  0.105842  0.000000
  0.217165  0.113736  0.000000
  0.212407  0.122145  0.000000
  0.207723  0.130587  0.000000
  0.203143  0.139378  0.000000
  0.198620  0.148286  0.000000
  0.194087  0.157551  0.000000
  0.189605  0.167054  0.000000
  0.184957  0.176895  0.000000
  0.180517  0.187383  0.000000
  0.176373  0.198352  0.000000
  0.173889  0.208870  0.000000
  0.354328  0.009450  0.000000
  0.347102  0.014938  0.000000
  0.336140  0.009737  0.000000
  0.333685  0.017302  0.000000
  0.325241  0.023902  0.000000
  0.315590  0.020824  0.000000
  0.312225  0.028278  0.000000
  0.307272  0.032413  0.000000
  0.299642  0.036873  0.000000
  0.296278  0.042150  0.000000
  0.288956  0.047982  0.000000
  0.282882  0.051722  0.000000
  0.275161  0.058680  0.000000
  0.267835  0.065267  0.000000
  0.261201  0.071639  0.000000
  0.255012  0.078895  0.000000
  0.249005  0.086074  0.000000
  0.243110  0.093611  0.000000
  0.237475  0.101461  0.000000
  0.232060  0.109562  0.000000
  0.226766  0.117842  0.000000
  0.221692  0.126406  0.000000
  0.216695  0.135123  0.000000
  0.211836  0.144086  0.000000
  0.207000  0.153237  0.000000
  0.202169  0.162646  0.000000
  0.197209  0.172326  0.000000
  0.192091  0.182682  0.000000
  0.186861  0.193850  0.000000
  0.184285  0.204371  0.000000
  0.384073  0.011008  0.000000
  0.372847  0.017658  0.000000
  0.367393  0.011654  0.000000
  0.360014  0.015771  0.000000
  0.359431  0.024918  0.000000
  0.345256  0.020550  0.000000
  0.340369  0.027665  0.000000
  0.334603  0.030419  0.000000
  0.327683  0.033690  0.000000
  0.320936  0.040431  0.000000
  0.312876  0.045197  0.000000
  0.303422  0.049183  0.000000
  0.294906  0.054756  0.000000
  0.287190  0.061439  0.000000
  0.280383  0.067623  0.000000
  0.273148  0.074610  0.000000
  0.266351  0.081718  0.000000
  0.259578  0.089149  0.000000
  0.253366  0.096986  0.000000
  0.247256  0.105106  0.000000
  0.241476  0.113403  0.000000
  0.235896  0.122015  0.000000
  0.230521  0.130762  0.000000
  0.225299  0.139735  0.000000
  0.220185  0.148875  0.000000
  0.215110  0.158154  0.000000
  0.209959  0.167705  0.000000
  0.204561  0.177345  0.000000
  0.198251  0.187994  0.000000
  0.194008  0.199570  0.000000
  0.401769  0.009366  0.000000
  0.398698  0.015832  0.000000
  0.390128  0.014453  0.000000
  0.376544  0.020621  0.000000
  0.377852  0.033244  0.000000
  0.368496  0.034711  0.000000
  0.360644  0.031481  0.000000
  0.354856  0.039214  0.000000
  0.349905  0.039435  0.000000
  0.340453  0.042882  0.000000
  0.330602  0.045251  0.000000
  0.321717  0.048660  0.000000
  0.314669  0.053912  0.000000
  0.306643  0.061013  0.000000
  0.297538  0.066983  0.000000
  0.289659  0.072920  0.000000
  0.281838  0.079752  0.000000
  0.274709  0.086971  0.000000
  0.267792  0.094732  0.000000
  0.261167  0.102751  0.000000
  0.254945  0.110994  0.000000
  0.248919  0.119585  0.000000
  0.243231  0.128284  0.000000
  0.237673  0.137279  0.000000
  0.232370  0.146309  0.000000
  0.227021  0.155657  0.000000
  0.221845  0.164885  0.000000
  0.216222  0.174602  0.000000
  0.210546  0.183870  0.000000
  0.203885  0.193229  0.000000
 -0.010000  0.500000  0.000000
 -0.010000  0.490000  0.000000
 -0.010000  0.480000  0.000000
 -0.010000  0.470000  0.000000
 -0.010000  0.460000  0.000000
 -0.010000  0.450000  0.000000
 -0.010000  0.440000  0.000000
 -0.010000  0.430000  0.000000
 -0.010000  0.420000  0.000000
 -0.010000  0.410000  0.000000
 -0.010000  0.400000  0.000000
 -0.010000  0.390000  0.000000
 -0.010000  0.380000  0.000000
 -0.010000  0.370000  0.000000
 -0.010000  0.360000  0.000000
 -0.010000  0.350000  0.000000
 -0.010000  0.340000  0.000000
 -0.010000  0.330000  0.000000
 -0.010000  0.320000  0.000000
 -0.010000  0.310000  0.000000
 -0.010000  0.300000  0.000000
 -0.010000  0.290000  0.000000
 -0.010000  0.280000  0.000000
 -0.010000  0.270000  0.000000
 -0.010000  0.260000  0.000000
 -0.010000  0.250000  0.000000
 -0.010000  0.240000  0.000000
 -0.010000  0.230000  0.000000
 -0.010000  0.220000  0.000000
 -0.010000  0.210000  0.000000
 -0.010000  0.200000  0.000000
 -0.010000  0.190000  0.000000
 -0.010000  0.180000  0.000000
 -0.010000  0.170000  0.000000
 -0.010000  0.160000  0.000000
 -0.010000  0.150000  0.000000
 -0.010000  0.140000  0.000000
 -0.010000  0.130000  0.000000
 -0.010000  0.120000  0.000000
 -0.010000  0.110000  0.000000
 -0.010000  0.100000  0.000000
 -0.010000  0.090000  0.000000
 -0.010000  0.080000  0.000000
 -0.010000  0.070000  0.000000
 -0.010000  0.060000  0.000000
 -0.010000  0.050000  0.000000
 -0.010000  0.040000  0.000000
 -0.010000  0.030000  0.000000
 -0.010000  0.020000  0.000000
 -0.010000  0.010000  0.000000
 -0.100000 -0.010000  0.000000
 -0.090000 -0.010000  0.000000
 -0.080000 -0.010000  0.000000
 -0.070000 -0.010000  0.000000
 -0.060000 -0.010000  0.000000
 -0.050000 -0.010000  0.000000
 -0.040000 -0.010000  0.000000
 -0.030000 -0.010000  0.000000