<?xml version="1.0" encoding="UTF-8"?>
<VTKFile type="UnstructuredGrid" version="1.0" byte_order="LittleEndian">
<UnstructuredGrid>
  <Piece NumberOfPoints="1555" NumberOfCells="1555">
      <PointData>
        <DataArray type="Int32" Name="Type" format="ascii">
 1 1 1 1 1 1 1 1 1 1
 1 1 1 1 1 1 1 1 1 1
 1 1 1 1 1 1 1 1 1 1
 1 1 1 1 1 1 1 1 1 1
 1 1 1 1 1 1 1 1 1 1
 1 1 1 1 1 1 1 1 1 1
 1 3 3 3 3 3 3 3 3 3
 3 3 3 3 3 3 3 3 3 3
 3 3 3 3 3 3 3 3 3 3
 3 3 3 3 3 3 3 3 3 3
 3 3 3 3 3 3 3 3 3 3
 3 3 3 3 3 3 3 3 3 3
 3 3 3 3 3 3 3 3 3 3
 1 1 1 1 1 1 1 1 1 1
 1 1 1 1 1 1 1 1 1 1
 1 1 1 1 1 1 1 1 1 1
 1 1 1 1 1 1 1 1 1 1
 1 1 1 1 1 1 1 1 1 1
 1 1 1 1 1 1 1 1 1 1
 1 2 2 2 2 2 2 2 2 2
 2 2 2 2 2 2 2 2 2 2
 2 2 2 2 2 2 2 2 2 2
 2 2 2 2 2 2 2 2 2 2
 2 2 2 2 2 2 2 2 2 2
 2 2 2 2 2 2 2 2 2 2
 2 2 2 2 2 2 2 2 2 2
 2 2 2 2 2 2 2 2 2 2
 2 2 2 2 2 2 2 2 2 2
 2 2 2 2 2 2 2 2 2 2
 2 2 2 2 2 2 2 2 2 2
 2 2 2 2 2 2 2 2 2 2
 2 2 2 2 2 2 2 2 2 2
 2 2 2 2 2 2 2 2 2 2
 2 2 2 2 2 2 2 2 2 2
 2 2 2 2 2 2 2 2 2 2
 2 2 2 2 2 2 2 2 2 2
 2 2 2 2 2 2 2 2 2 2
 2 2 2 2 2 2 2 2 2 2
 2 2 2 2 2 2 2 2 2 2
 2 2 2 2 2 2 2 2 2 2
 2 2 2 2 2 2 2 2 2 2
 2 2 2 2 2 2 2 2 2 2
 2 2 2 2 2 2 2 2 2 2
 2 2 2 2 2 2 2 2 2 2
 2 2 2 2 2 2 2 2 2 2
 2 2 2 2 2 2 2 2 2 2
 2 2 2 2 2 2 2 2 2 2
 2 2 2 2 2 2 2 2 2 2
 2 2 2 2 2 2 2 2 2 2
 2 2 2 2 2 2 2 2 2 2
 2 2 2 2 2 2 2 2 2 2
 2 2 2 2 2 2 2 2 2 2
 2 2 2 2 2 2 2 2 2 2
 2 2 2 2 2 2 2 2 2 2
 2 2 2 2 2 2 2 2 2 2
 2 2 2 2 2 2 2 2 2 2
 2 2 2 2 2 2 2 2 2 2
 2 2 2 2 2 2 2 2 2 2
 2 2 2 2 2 2 2 2 2 2
 2 2 2 2 2 2 2 2 2 2
 2 2 2 2 2 2 2 2 2 2
 2 2 2 2 2 2 2 2 2 2
 2 2 2 2 2 2 2 2 2 2
 2 2 2 2 2 2 2 2 2 2
 2 2 2 2 2 2 2 2 2 2
 2 2 2 2 2 2 2 2 2 2
 2 2 2 2 2 2 2 2 2 2
 2 2 2 2 2 2 2 2 2 2
 2 2 2 2 2 2 2 2 2 2
 2 2 2 2 2 2 2 2 2 2
 2 2 2 2 2 2 2 2 2 2
 2 2 2 2 2 2 2 2 2 2
 2 2 2 2 2 2 2 2 2 2
 2 2 2 2 2 2 2 2 2 2
 2 2 2 2 2 2 2 2 2 2
 2 2 2 2 2 2 2 2 2 2
 2 2 2 2 2 2 2 2 2 2
 2 2 2 2 2 2 2 2 2 2
 2 2 2 2 2 2 2 2 2 2
 2 0 0 0 0 0 0 0 0 0
 0 0 0 0 0 0 0 0 0 0
 0 0 0 0 0 0 0 0 0 0
 0 0 0 0 0 0 0 0 0 0
 0 0 0 0 0 0 0 0 0 0
 0 0 0 0 0 0 0 0 0 0
 0 0 0 0 0 0 0 0 0 0
 0 0 0 0 0 0 0 0 0 0
 0 0 0 0 0 0 0 0 0 0
 0 0 0 0 0 0 0 0 0 0
 0 0 0 0 0 0 0 0 0 0
 0 0 0 0 0 0 0 0 0 0
 0 0 0 0 0 0 0 0 0 0
 0 0 0 0 0 0 0 0 0 0
 0 0 0 0 0 0 0 0 0 0
 0 0 0 0 0 0 0 0 0 0
 0 0 0 0 0 0 0 0 0 0
 0 0 0 0 0 0 0 0 0 0
 0 0 0 0 0 0 0 0 0 0
 0 0 0 0 0 0 0 0 0 0
 0 0 0 0 0 0 0 0 0 0
 0 0 0 0 0 0 0 0 0 0
 0 0 0 0 0 0 0 0 0 0
 0 0 0 0 0 0 0 0 0 0
 0 0 0 0 0 0 0 0 0 0
 0 0 0 0 0 0 0 0 0 0
 0 0 0 0 0 0 0 0 0 0
 0 0 0 0 0 0 0 0 0 0
 0 0 0 0 0 0 0 0 0 0
 0 0 0 0 0 0 0 0 0 0
 0 0 0 0 0 0 0 0 0 0
 0 0 0 0 0 0 0 0 0 0
 0 0 0 0 0 0 0 0 0 0
 0 0 0 0 0 0 0 0 0 0
 0 0 0 0 0 0 0 0 0 0
 0 0 0 0 0 0 0 0 0 0
 0 0 0 0 0 0 0 0 0 0
 0 0 0 0 0 0 0 0 0 0
 0 0 0 0 0 0 0 0 0 0
 0 0 0 0 0 0 0 0 0 0
 0 0 0 0 0 0 0 0 0 0
 0 0 0 0 0 0 0 0 0 0
 0 0 0 0 0 0 0 0 0 0
 0 0 0 0 0 0 0 0 0 0
 0 0 0 0 0 0 0 0 0 0
 0 0 0 0 0 0 0 0 0 0
 0 0 0 0 0 0 0 0 0 0
 0 0 0 0 0 0 0 0 0 0
 0 0 0 0 0 0 0 0 0 0
 0 0 0 0 0 0 0 0 0 0
 0 0 0 0 0 0 0 0 0 0
 0 0 0 0 0 0 0 0 0 0
 0 0 0 0 0 0 0 0 0 0
 0 0 0 0 0 0 0 0 0 0
 0 0 0 0 0 0 0 0 0 0
 0 0 0 0 0 0 0 0 0 0
 0 0 0 0 0 0 0 0 0 0
 0 0 0 0 0 0 0 0 0 0
 0 0 0 0 0 0 0 0 0 0
 0 0 0 0 0 0 0 0 0 0
 0 0 0 0 0 0 0 0 0 0
 0 0 0 0 0 0 0 0 0 0
 0 0 0 0 0 0 0 0 0 0
 0 0 0 0 0 0 0 0 0 0
 0 0 0 0 0 0 0 0 0 0
 0 0 0 0 0 0 0 0 0 0
 0 0 0 0 0 0 0 0 0 0
 0 0 0 0 0 0 0 0 0 0
 0 0 0 0 0 0 0 0 0 0
 0 0 0 0 0 0 0 0 0 0
 0 0 0 0 0 0 0 0 0 0
 0 0 0 0 0 0 0 0 0 0
 0 0 0 0 0 0 0 0 0 0
 0 0 0 0 0 0 0 0 0 0
 0 0 0 0 0 0 0 0 0 0
 0 0 0 0 0 0 0 0 0 0
 0 0 0 0 0
        </DataArray>
      </PointData>
      <Points>
        <DataArray type="Float32" NumberOfComponents="3" format="ascii">
  0.000000  0.500000  0.000000
  0.000000  0.490000  0.000000
  0.000000  0.480000  0.000000
  0.000000  0.470000  0.000000
  0.000000  0.460000  0.000000
  0.000000  0.450000  0.000000
  0.000000  0.440000  0.000000
  0.000000  0.430000  0.000000
  0.000000  0.420000  0.000000
  0.000000  0.410000  0.000000
  0.000000  0.400000  0.000000
  0.000000  0.390000  0.000000
  0.000000  0.380000  0.000000
  0.000000  0.370000  0.000000
  0.000000  0.360000  0.000000
  0.000000  0.350000  0.000000
  0.000000  0.340000  0.000000
  0.000000  0.330000  0.000000
  0.000000  0.320000  0.000000
  0.000000  0.310000  0.000000
  0.000000  0.300000  0.000000
  0.000000  0.290000  0.000000
  0.000000  0.280000  0.000000
  0.000000  0.270000  0.000000
  0.000000  0.260000  0.000000
  0.000000  0.250000  0.000000
  0.000000  0.240000  0.000000
  0.000000  0.230000  0.000000
  0.000000  0.220000  0.000000
  0.000000  0.210000  0.000000
  0.000000  0.200000  0.000000
  0.000000  0.190000  0.000000
  0.000000  0.180000  0.000000
  0.000000  0.170000  0.000000
  0.000000  0.160000  0.000000
  0.000000  0.150000  0.000000
  0.000000  0.140000  0.000000
  0.000000  0.130000  0.000000
  0.000000  0.120000  0.000000
  0.000000  0.110000  0.000000
  0.000000  0.100000  0.000000
  0.000000  0.090000  0.000000
  0.000000  0.080000  0.000000
  0.000000  0.070000  0.000000
  0.000000  0.060000  0.000000
  0.000000  0.050000  0.000000
  0.000000  0.040000  0.000000
  0.000000  0.030000  0.000000
  0.000000  0.020000  0.000000
  0.000000  0.010000  0.000000
 -0.100000  0.000000  0.000000
 -0.090000  0.000000  0.000000
 -0.080000  0.000000  0.000000
 -0.070000  0.000000  0.000000
 -0.060000  0.000000  0.000000
 -0.050000  0.000000  0.000000
 -0.040000  0.000000  0.000000
 -0.030000  0.000000  0.000000
 -0.020000  0.000000  0.000000
 -0.010000  0.000000  0.000000
 -0.000000  0.000000  0.000000
  0.010000  0.000000  0.000000
  0.020000  0.000000  0.000000
  0.030000  0.000000  0.000000
  0.040000  0.000000  0.000000
  0.050000  0.000000  0.000000
  0.060000  0.000000  0.000000
  0.070000  0.000000  0.000000
  0.080000  0.000000  0.000000
  0.090000  0.000000  0.000000
  0.100000  0.000000  0.000000
  0.110000  0.000000  0.000000
  0.120000  0.000000  0.000000
  0.130000  0.000000  0.000000
  0.140000  0.000000  0.000000
  0.150000  0.000000  0.000000
  0.160000  0.000000  0.000000
  0.170000  0.000000  0.000000
  0.180000  0.000000  0.000000
  0.190000  0.000000  0.000000
  0.200000  0.000000  0.000000
  0.210000  0.000000  0.000000
  0.220000  0.000000  0.000000
  0.230000  0.000000  0.000000
  0.240000  0.000000  0.000000
  0.250000  0.000000  0.000000
  0.260000  0.000000  0.000000
  0.270000  0.000000  0.000000
  0.280000  0.000000  0.000000
  0.290000  0.000000  0.000000
  0.300000  0.000000  0.000000
  0.310000  0.000000  0.000000
  0.320000  0.000000  0.000000
  0.330000  0.000000  0.000000
  0.340000  0.000000  0.000000
  0.350000  0.000000  0.000000
  0.360000  0.000000  0.000000
  0.370000  0.000000  0.000000
  0.380000  0.000000  0.000000
  0.390000  0.000000  0.000000
  0.400000  0.000000  0.000000
  0.410000  0.000000  0.000000
  0.420000  0.000000  0.000000
  0.430000  0.000000  0.000000
  0.440000  0.000000  0.000000
  0.450000  0.000000  0.000000
  0.460000  0.000000  0.000000
  0.470000  0.000000  0.000000
  0.480000  0.000000  0.000000
  0.490000  0.000000  0.000000
  0.500000  0.000000  0.000000
  0.510000  0.000000  0.000000
  0.520000  0.000000  0.000000
  0.530000  0.000000  0.000000
  0.540000  0.000000  0.000000
  0.550000  0.000000  0.000000
  0.560000  0.000000  0.000000
  0.570000  0.000000  0.000000
  0.580000  0.000000  0.000000
  0.590000  0.000000  0.000000
  0.600000  0.000000  0.000000
  0.610000  0.000000  0.000000
  0.620000  0.000000  0.000000
  0.630000  0.000000  0.000000
  0.640000  0.000000  0.000000
  0.650000  0.000000  0.000000
  0.660000  0.000000  0.000000
  0.670000  0.000000  0.000000
  0.680000  0.000000  0.000000
  0.690000  0.000000  0.000000
  0.700000  0.000000  0.000000
  0.710000  0.000000  0.000000
  0.720000  0.000000  0.000000
  0.730000  0.000000  0.000000
  0.740000  0.000000  0.000000
  0.750000  0.000000  0.000000
  0.760000  0.000000  0.000000
  0.770000  0.000000  0.000000
  0.780000  0.000000  0.000000
  0.790000  0.000000  0.000000
  0.800000  0.000000  0.000000
  0.700000  0.010000  0.000000
  0.700000  0.020000  0.000000
  0.700000  0.030000  0.000000
  0.700000  0.040000  0.000000
  0.700000  0.050000  0.000000
  0.700000  0.060000  0.000000
  0.700000  0.070000  0.000000
  0.700000  0.080000  0.000000
  0.700000  0.090000  0.000000
  0.700000  0.100000  0.000000
  0.700000  0.110000  0.000000
  0.700000  0.120000  0.000000
  0.700000  0.130000  0.000000
  0.700000  0.140000  0.000000
  0.700000  0.150000  0.000000
  0.700000  0.160000  0.000000
  0.700000  0.170000  0.000000
  0.700000  0.180000  0.000000
  0.700000  0.190000  0.000000
  0.700000  0.200000  0.000000
  0.700000  0.210000  0.000000
  0.700000  0.220000  0.000000
  0.700000  0.230000  0.000000
  0.700000  0.240000  0.000000
  0.700000  0.250000  0.000000
  0.700000  0.260000  0.000000
  0.700000  0.270000  0.000000
  0.700000  0.280000  0.000000
  0.700000  0.290000  0.000000
  0.700000  0.300000  0.000000
  0.700000  0.310000  0.000000
  0.700000  0.320000  0.000000
  0.700000  0.330000  0.000000
  0.700000  0.340000  0.000000
  0.700000  0.350000  0.000000
  0.700000  0.360000  0.000000
  0.700000  0.370000  0.000000
  0.700000  0.380000  0.000000
  0.700000  0.390000  0.000000
  0.700000  0.400000  0.000000
  0.700000  0.410000  0.000000
  0.700000  0.420000  0.000000
  0.700000  0.430000  0.000000
  0.700000  0.440000  0.000000
  0.700000  0.450000  0.000000
  0.700000  0.460000  0.000000
  0.700000  0.470000  0.000000
  0.700000  0.480000  0.000000
  0.700000  0.490000  0.000000
  0.700000  0.500000  0.000000
  0.017401  0.009121  0.000000
  0.021532  0.018179  0.000000
  0.035509  0.014026  0.000000
  0.009229  0.011629  0.000000
  0.022949  0.025333  0.000000
  0.009768  0.022896  0.000000
  0.032426  0.027268  0.000000
  0.040323  0.026348  0.000000
  0.052174  0.029259  0.000000
  0.033322  0.035716  0.000000
  0.042079  0.041277  0.000000
  0.011500  0.030027  0.000000
  0.008135  0.042368  0.000000
  0.011464  0.051649  0.000000
  0.008131  0.063578  0.000000
  0.020414  0.061426  0.000000
  0.033179  0.068445  0.000000
  0.013750  0.071174  0.000000
  0.023683  0.085526  0.000000
  0.009059  0.080248  0.000000
  0.014878  0.085690  0.000000
  0.009227  0.094644  0.000000
  0.009972  0.104118  0.000000
  0.014059  0.113124  0.000000
  0.009600  0.119214  0.000000
  0.019653  0.124626  0.000000
  0.009716  0.129674  0.000000
  0.020249  0.136031  0.000000
  0.011333  0.139192  0.000000
  0.026393  0.134310  0.000000
  0.042002  0.009434  0.000000
  0.028942  0.010817  0.000000
  0.053688  0.009388  0.000000
  0.046465  0.020218  0.000000
  0.063576  0.010006  0.000000
  0.063986  0.024326  0.000000
  0.079337  0.019877  0.000000
  0.056033  0.018354  0.000000
  0.054844  0.045732  0.000000
  0.048943  0.036272  0.000000
  0.039985  0.049918  0.000000
  0.019698  0.035585  0.000000
  0.052870  0.051119  0.000000
  0.029273  0.044758  0.000000
  0.051442  0.062238  0.000000
  0.018506  0.054404  0.000000
  0.019552  0.042232  0.000000
  0.031764  0.062240  0.000000
  0.044135  0.069707  0.000000
  0.021367  0.072583  0.000000
  0.043289  0.084948  0.000000
  0.033787  0.085862  0.000000
  0.021779  0.095844  0.000000
  0.033997  0.097528  0.000000
  0.020672  0.101875  0.000000
  0.034075  0.109875  0.000000
  0.023756  0.111934  0.000000
  0.031120  0.118168  0.000000
  0.029838  0.124447  0.000000
  0.037163  0.134235  0.000000
  0.093276  0.009197  0.000000
  0.074906  0.009419  0.000000
  0.083673  0.011416  0.000000
  0.069721  0.019410  0.000000
  0.093742  0.022332  0.000000
  0.108645  0.016779  0.000000
  0.122318  0.023175  0.000000
  0.095273  0.036214  0.000000
  0.083607  0.046640  0.000000
  0.062934  0.033838  0.000000
  0.076236  0.038761  0.000000
  0.084393  0.029838  0.000000
  0.063978  0.053984  0.000000
  0.063376  0.071237  0.000000
  0.077874  0.064259  0.000000
  0.032279  0.052841  0.000000
  0.060112  0.071001  0.000000
  0.045411  0.059995  0.000000
  0.044416  0.077319  0.000000
  0.030098  0.078022  0.000000
  0.055734  0.079867  0.000000
  0.053341  0.089151  0.000000
  0.048880  0.095735  0.000000
  0.037085  0.098867  0.000000
  0.052672  0.105699  0.000000
  0.043631  0.110240  0.000000
  0.046938  0.116497  0.000000
  0.049834  0.122440  0.000000
  0.047748  0.127965  0.000000
  0.042875  0.135603  0.000000
  0.126923  0.008880  0.000000
  0.105104  0.008894  0.000000
  0.125293  0.017735  0.000000
  0.095755  0.018923  0.000000
  0.123649  0.039326  0.000000
  0.116449  0.010999  0.000000
  0.120317  0.033686  0.000000
  0.112294  0.024276  0.000000
  0.104888  0.043673  0.000000
  0.078405  0.030140  0.000000
  0.112311  0.045573  0.000000
  0.070740  0.047366  0.000000
  0.101671  0.052470  0.000000
  0.065040  0.038692  0.000000
  0.066462  0.059897  0.000000
  0.090759  0.041359  0.000000
  0.076861  0.055792  0.000000
  0.086264  0.065739  0.000000
  0.076758  0.073567  0.000000
  0.070226  0.082259  0.000000
  0.085603  0.085312  0.000000
  0.064188  0.086788  0.000000
  0.057552  0.099734  0.000000
  0.073819  0.091743  0.000000
  0.067413  0.102891  0.000000
  0.063359  0.110635  0.000000
  0.067780  0.115626  0.000000
  0.063763  0.122078  0.000000
  0.060046  0.131781  0.000000
  0.064692  0.132288  0.000000
  0.152879  0.008376  0.000000
  0.138210  0.009610  0.000000
  0.153617  0.015548  0.000000
  0.141920  0.015977  0.000000
  0.166646  0.015901  0.000000
  0.137946  0.023361  0.000000
  0.134385  0.031247  0.000000
  0.146087  0.026572  0.000000
  0.101576  0.030649  0.000000
  0.143296  0.039331  0.000000
  0.109688  0.033898  0.000000
  0.135423  0.038058  0.000000
  0.124882  0.047884  0.000000
  0.115652  0.055937  0.000000
  0.123796  0.066062  0.000000
  0.088942  0.052414  0.000000
  0.107043  0.058876  0.000000
  0.094620  0.059184  0.000000
  0.103604  0.080403  0.000000
  0.094807  0.070269  0.000000
  0.081572  0.078094  0.000000
  0.094531  0.082280  0.000000
  0.089607  0.093990  0.000000
  0.074747  0.097131  0.000000
  0.087227  0.099862  0.000000
  0.080766  0.109838  0.000000
  0.079677  0.109898  0.000000
  0.081340  0.122205  0.000000
  0.078774  0.125942  0.000000
  0.073965  0.133853  0.000000
  0.178792  0.009377  0.000000
  0.167263  0.009302  0.000000
  0.193099  0.022773  0.000000
  0.176387  0.021778  0.000000
  0.215434  0.015910  0.000000
  0.180699  0.028779  0.000000
  0.199862  0.011148  0.000000
  0.158031  0.023035  0.000000
  0.166609  0.026986  0.000000
  0.186510  0.034976  0.000000
  0.165616  0.038464  0.000000
  0.172315  0.035670  0.000000
  0.155483  0.033013  0.000000
  0.139661  0.052494  0.000000
  0.125174  0.053963  0.000000
  0.131377  0.062465  0.000000
  0.111919  0.067513  0.000000
  0.139497  0.065904  0.000000
  0.101267  0.070165  0.000000
  0.120857  0.073615  0.000000
  0.113555  0.078716  0.000000
  0.114852  0.086600  0.000000
  0.099568  0.090550  0.000000
  0.108401  0.094183  0.000000
  0.104855  0.103523  0.000000
  0.097339  0.104709  0.000000
  0.097723  0.112699  0.000000
  0.096699  0.117467  0.000000
  0.090881  0.125858  0.000000
  0.093868  0.129047  0.000000
  0.228640  0.011999  0.000000
  0.189848  0.009678  0.000000
  0.207586  0.012209  0.000000
  0.185064  0.017232  0.000000
  0.252764  0.027401  0.000000
  0.221461  0.011035  0.000000
  0.231073  0.021358  0.000000
  0.205987  0.021996  0.000000
  0.198822  0.026302  0.000000
  0.204305  0.036755  0.000000
  0.192542  0.037240  0.000000
  0.197147  0.046404  0.000000
  0.174796  0.045646  0.000000
  0.151686  0.038950  0.000000
  0.158140  0.047496  0.000000
  0.142748  0.052481  0.000000
  0.149452  0.058295  0.000000
  0.156732  0.063431  0.000000
  0.140438  0.072428  0.000000
  0.130949  0.077615  0.000000
  0.144045  0.080067  0.000000
  0.129741  0.085172  0.000000
  0.123753  0.090150  0.000000
  0.128506  0.098452  0.000000
  0.114930  0.099922  0.000000
  0.121477  0.105744  0.000000
  0.116695  0.113318  0.000000
  0.112839  0.115220  0.000000
  0.109701  0.123929  0.000000
  0.104507  0.130114  0.000000
  0.244665  0.012018  0.000000
  0.239136  0.012977  0.000000
  0.287336  0.021822  0.000000
  0.253294  0.011705  0.000000
  0.295143  0.026945  0.000000
  0.264141  0.011906  0.000000
  0.270544  0.028768  0.000000
  0.243208  0.025044  0.000000
  0.257669  0.019368  0.000000
  0.237231  0.028565  0.000000
  0.222553  0.026692  0.000000
  0.214628  0.028799  0.000000
  0.213690  0.037714  0.000000
  0.182649  0.046776  0.000000
  0.190287  0.060011  0.000000
  0.170786  0.053749  0.000000
  0.159588  0.052036  0.000000
  0.179856  0.057250  0.000000
  0.164174  0.064922  0.000000
  0.172619  0.064088  0.000000
  0.156684  0.076788  0.000000
  0.154375  0.073873  0.000000
  0.155365  0.087659  0.000000
  0.140017  0.088216  0.000000
  0.145998  0.093181  0.000000
  0.139027  0.100210  0.000000
  0.136488  0.104853  0.000000
  0.131649  0.113945  0.000000
  0.128364  0.125727  0.000000
  0.126676  0.121619  0.000000
  0.295367  0.014151  0.000000
  0.278763  0.011814  0.000000
  0.302610  0.010129  0.000000
  0.284928  0.011643  0.000000
  0.318617  0.012694  0.000000
  0.304405  0.017038  0.000000
  0.305225  0.026793  0.000000
  0.277791  0.023106  0.000000
  0.268511  0.014164  0.000000
  0.273262  0.032620  0.000000
  0.244740  0.038964  0.000000
  0.244852  0.043706  0.000000
  0.233901  0.051830  0.000000
  0.225863  0.035355  0.000000
  0.225474  0.046359  0.000000
  0.193011  0.050463  0.000000
  0.209004  0.043894  0.000000
  0.208949  0.054857  0.000000
  0.200514  0.061757  0.000000
  0.189935  0.066831  0.000000
  0.184957  0.072921  0.000000
  0.174148  0.073063  0.000000
  0.173398  0.079535  0.000000
  0.166222  0.084379  0.000000
  0.167356  0.091509  0.000000
  0.157758  0.095492  0.000000
  0.156152  0.103790  0.000000
  0.149341  0.110019  0.000000
  0.143175  0.116578  0.000000
  0.139256  0.122172  0.000000
  0.360029  0.010733  0.000000
  0.318942  0.011226  0.000000
  0.368931  0.013006  0.000000
  0.337317  0.015977  0.000000
  0.374243  0.028815  0.000000
  0.342161  0.010746  0.000000
  0.372316  0.026694  0.000000
  0.319676  0.030440  0.000000
  0.299457  0.035218  0.000000
  0.286476  0.033500  0.000000
  0.283632  0.040291  0.000000
  0.275708  0.044981  0.000000
  0.233194  0.038526  0.000000
  0.257615  0.031028  0.000000
  0.261495  0.038523  0.000000
  0.253878  0.045162  0.000000
  0.231678  0.061297  0.000000
  0.223477  0.051328  0.000000
  0.223667  0.065482  0.000000
  0.212466  0.056305  0.000000
  0.216421  0.065581  0.000000
  0.201596  0.071830  0.000000
  0.205454  0.075120  0.000000
  0.186152  0.080976  0.000000
  0.187442  0.087646  0.000000
  0.179928  0.091591  0.000000
  0.175365  0.100384  0.000000
  0.170570  0.104072  0.000000
  0.160879  0.111709  0.000000
  0.159359  0.114548  0.000000
  0.400639  0.010824  0.000000
  0.362997  0.018570  0.000000
  0.423828  0.014985  0.000000
  0.387329  0.011945  0.000000
  0.418483  0.010404  0.000000
  0.378395  0.011475  0.000000
  0.395086  0.016189  0.000000
  0.381633  0.018548  0.000000
  0.353385  0.028047  0.000000
  0.336665  0.033350  0.000000
  0.350278  0.011911  0.000000
  0.314202  0.024543  0.000000
  0.310382  0.038596  0.000000
  0.312055  0.052147  0.000000
  0.301986  0.044552  0.000000
  0.274695  0.052364  0.000000
  0.265788  0.046523  0.000000
  0.258311  0.055278  0.000000
  0.258814  0.062790  0.000000
  0.245148  0.056108  0.000000
  0.239940  0.068658  0.000000
  0.231430  0.073095  0.000000
  0.215915  0.074402  0.000000
  0.218094  0.083305  0.000000
  0.199039  0.085029  0.000000
  0.203808  0.085677  0.000000
  0.191229  0.096712  0.000000
  0.183517  0.107379  0.000000
  0.183680  0.117439  0.000000
  0.174189  0.113954  0.000000
  0.478626  0.012424  0.000000
  0.447395  0.015218  0.000000
  0.486713  0.011127  0.000000
  0.460076  0.011575  0.000000
  0.472195  0.012042  0.000000
  0.439206  0.011227  0.000000
  0.435207  0.012128  0.000000
  0.410724  0.020550  0.000000
  0.408156  0.012882  0.000000
  0.394366  0.026515  0.000000
  0.388047  0.037235  0.000000
  0.353217  0.022852  0.000000
  0.340957  0.025938  0.000000
  0.334880  0.040246  0.000000
  0.323097  0.034059  0.000000
  0.316417  0.043805  0.000000
  0.308016  0.055273  0.000000
  0.293187  0.044751  0.000000
  0.298022  0.058822  0.000000
  0.287740  0.051952  0.000000
  0.268404  0.057948  0.000000
  0.275882  0.067170  0.000000
  0.243704  0.059187  0.000000
  0.250949  0.075259  0.000000
  0.235206  0.080012  0.000000
  0.222812  0.084886  0.000000
  0.213844  0.093689  0.000000
  0.207382  0.096693  0.000000
  0.196824  0.101865  0.000000
  0.191110  0.107405  0.000000
  0.578078  0.011408  0.000000
  0.535263  0.016913  0.000000
  0.537495  0.014104  0.000000
  0.513939  0.012583  0.000000
  0.528100  0.010106  0.000000
  0.498078  0.012766  0.000000
  0.471237  0.025780  0.000000
  0.475297  0.022477  0.000000
  0.457941  0.012781  0.000000
  0.437807  0.025984  0.000000
  0.421191  0.021511  0.000000
  0.405171  0.029353  0.000000
  0.392493  0.029752  0.000000
  0.400118  0.044929  0.000000
  0.358529  0.039937  0.000000
  0.360219  0.045115  0.000000
  0.351274  0.035049  0.000000
  0.329255  0.013788  0.000000
  0.330843  0.024560  0.000000
  0.347257  0.046601  0.000000
  0.327428  0.050131  0.000000
  0.307963  0.066943  0.000000
  0.290107  0.058397  0.000000
  0.264459  0.068790  0.000000
  0.256943  0.074041  0.000000
  0.246779  0.079544  0.000000
  0.235064  0.087580  0.000000
  0.230150  0.092582  0.000000
  0.222450  0.110246  0.000000
  0.206963  0.106815  0.000000
  0.618627  0.013612  0.000000
  0.586630  0.013740  0.000000
  0.598326  0.010401  0.000000
  0.571660  0.013220  0.000000
  0.590271  0.031391  0.000000
  0.552131  0.011316  0.000000
  0.521670  0.025754  0.000000
  0.529595  0.034816  0.000000
  0.488594  0.023687  0.000000
  0.516548  0.028981  0.000000
  0.492709  0.029195  0.000000
  0.462399  0.027749  0.000000
  0.444451  0.026988  0.000000
  0.454837  0.040491  0.000000
  0.426739  0.029632  0.000000
  0.410350  0.035080  0.000000
  0.414889  0.050663  0.000000
  0.381024  0.042368  0.000000
  0.382245  0.049507  0.000000
  0.371455  0.035632  0.000000
  0.351930  0.053763  0.000000
  0.332325  0.045677  0.000000
  0.328222  0.058422  0.000000
  0.301276  0.073073  0.000000
  0.289975  0.068434  0.000000
  0.276335  0.076370  0.000000
  0.264273  0.085636  0.000000
  0.254741  0.089265  0.000000
  0.238269  0.101318  0.000000
  0.230976  0.100612  0.000000
  0.656107  0.010720  0.000000
  0.647378  0.021081  0.000000
  0.652830  0.017593  0.000000
  0.635166  0.013169  0.000000
  0.614651  0.029792  0.000000
  0.606684  0.011533  0.000000
  0.562334  0.013144  0.000000
  0.575897  0.038349  0.000000
  0.535892  0.026489  0.000000
  0.550507  0.013968  0.000000
  0.541460  0.031808  0.000000
  0.504871  0.011625  0.000000
  0.519443  0.014018  0.000000
  0.511833  0.024673  0.000000
  0.452435  0.022563  0.000000
  0.470731  0.037759  0.000000
  0.462209  0.035584  0.000000
  0.428548  0.033059  0.000000
  0.429239  0.046815  0.000000
  0.412075  0.037689  0.000000
  0.394480  0.043094  0.000000
  0.368693  0.045850  0.000000
  0.357366  0.061305  0.000000
  0.342112  0.057843  0.000000
  0.318704  0.062366  0.000000
  0.312787  0.071486  0.000000
  0.284905  0.069575  0.000000
  0.273767  0.078771  0.000000
  0.265089  0.097600  0.000000
  0.249325  0.093028  0.000000
  0.671831  0.019088  0.000000
  0.666068  0.010382  0.000000
  0.662237  0.026595  0.000000
  0.662353  0.061083  0.000000
  0.642999  0.010756  0.000000
  0.625505  0.010476  0.000000
  0.643178  0.028920  0.000000
  0.625284  0.030662  0.000000
  0.595460  0.017038  0.000000
  0.612517  0.017185  0.000000
  0.604235  0.027458  0.000000
  0.580469  0.030888  0.000000
  0.560217  0.028238  0.000000
  0.579724  0.021458  0.000000
  0.547594  0.036943  0.000000
  0.520756  0.042734  0.000000
  0.503571  0.041497  0.000000
  0.496645  0.019856  0.000000
  0.485952  0.034908  0.000000
  0.460781  0.051061  0.000000
  0.445794  0.035943  0.000000
  0.423337  0.041771  0.000000
  0.397428  0.054858  0.000000
  0.390740  0.062949  0.000000
  0.372743  0.055337  0.000000
  0.346886  0.064031  0.000000
  0.327411  0.064132  0.000000
  0.305994  0.084165  0.000000
  0.294696  0.085001  0.000000
  0.268320  0.087460  0.000000
  0.681274  0.042634  0.000000
  0.687441  0.072523  0.000000
  0.681657  0.020957  0.000000
  0.680218  0.033812  0.000000
  0.659288  0.093637  0.000000
  0.664777  0.023507  0.000000
  0.669030  0.040825  0.000000
  0.659197  0.041490  0.000000
  0.659187  0.081644  0.000000
  0.654940  0.040970  0.000000
  0.632776  0.019632  0.000000
  0.624642  0.026557  0.000000
  0.619398  0.042052  0.000000
  0.609070  0.035302  0.000000
  0.596685  0.027275  0.000000
  0.593528  0.040020  0.000000
  0.556856  0.037342  0.000000
  0.550037  0.025876  0.000000
  0.526551  0.040635  0.000000
  0.506096  0.035038  0.000000
  0.475259  0.045701  0.000000
  0.469105  0.047413  0.000000
  0.444332  0.042639  0.000000
  0.438343  0.063704  0.000000
  0.399368  0.062624  0.000000
  0.380634  0.057689  0.000000
  0.367060  0.063898  0.000000
  0.338903  0.069807  0.000000
  0.315526  0.079778  0.000000
  0.295568  0.080359  0.000000
  0.689494  0.029784  0.000000
  0.674500  0.143355  0.000000
  0.686318  0.061136  0.000000
  0.688983  0.021503  0.000000
  0.690432  0.052699  0.000000
  0.687377  0.010673  0.000000
  0.676928  0.010984  0.000000
  0.680184  0.054410  0.000000
  0.658730  0.060690  0.000000
  0.663178  0.086729  0.000000
  0.672009  0.063105  0.000000
  0.669515  0.035469  0.000000
  0.672741  0.052527  0.000000
  0.665016  0.074958  0.000000
  0.638706  0.032215  0.000000
  0.635390  0.039716  0.000000
  0.616160  0.045705  0.000000
  0.592425  0.050692  0.000000
  0.572175  0.031937  0.000000
  0.562063  0.043509  0.000000
  0.543569  0.044329  0.000000
  0.531600  0.060550  0.000000
  0.490859  0.051520  0.000000
  0.489065  0.039654  0.000000
  0.450520  0.051862  0.000000
  0.435673  0.044689  0.000000
  0.408327  0.063325  0.000000
  0.377567  0.067175  0.000000
  0.335849  0.076965  0.000000
  0.328805  0.075791  0.000000
  0.662750  0.130502  0.000000
  0.686871  0.096409  0.000000
  0.688290  0.041289  0.000000
  0.645552  0.207725  0.000000
  0.677307  0.200377  0.000000
  0.659509  0.163063  0.000000
  0.681371  0.183379  0.000000
  0.687035  0.088159  0.000000
  0.682562  0.101541  0.000000
  0.690854  0.118784  0.000000
  0.673535  0.083085  0.000000
  0.686606  0.070365  0.000000
  0.678783  0.082817  0.000000
  0.662814  0.100729  0.000000
  0.650483  0.037525  0.000000
  0.673812  0.073496  0.000000
  0.643157  0.048288  0.000000
  0.644241  0.068656  0.000000
  0.621027  0.061003  0.000000
  0.615398  0.053994  0.000000
  0.578589  0.056347  0.000000
  0.563731  0.020599  0.000000
  0.571071  0.048188  0.000000
  0.506829  0.053983  0.000000
  0.498975  0.053047  0.000000
  0.485920  0.050431  0.000000
  0.447276  0.057111  0.000000
  0.410960  0.051092  0.000000
  0.371902  0.074233  0.000000
  0.362687  0.070648  0.000000
  0.609397  0.257056  0.000000
  0.681079  0.118114  0.000000
  0.601526  0.228841  0.000000
  0.688839  0.409080  0.000000
  0.598409  0.251066  0.000000
  0.650768  0.223172  0.000000
  0.666443  0.155967  0.000000
  0.690106  0.159061  0.000000
  0.686605  0.210257  0.000000
  0.678409  0.159017  0.000000
  0.678175  0.211934  0.000000
  0.692016  0.138656  0.000000
  0.666457  0.140005  0.000000
  0.685802  0.136543  0.000000
  0.686303  0.116760  0.000000
  0.668229  0.107074  0.000000
  0.676382  0.103332  0.000000
  0.652618  0.061352  0.000000
  0.634225  0.056131  0.000000
  0.641977  0.054481  0.000000
  0.631785  0.051019  0.000000
  0.601055  0.041988  0.000000
  0.583457  0.045163  0.000000
  0.562440  0.047874  0.000000
  0.536909  0.049622  0.000000
  0.519723  0.048852  0.000000
  0.469926  0.059158  0.000000
  0.433729  0.057388  0.000000
  0.420772  0.058181  0.000000
  0.391212  0.072650  0.000000
 -0.010000  0.500000  0.000000
 -0.010000  0.490000  0.000000
 -0.010000  0.480000  0.000000
 -0.010000  0.470000  0.000000
 -0.010000  0.460000  0.000000
 -0.010000  0.450000  0.000000
 -0.010000  0.440000  0.000000
 -0.010000  0.430000  0.000000
 -0.010000  0.420000  0.000000
 -0.010000  0.410000  0.000000
 -0.010000  0.400000  0.000000
 -0.010000  0.390000  0.000000
 -0.010000  0.380000  0.000000
 -0.010000  0.370000  0.000000
 -0.010000  0.360000  0.000000
 -0.010000  0.350000  0.000000
 -0.010000  0.340000  0.000000
 -0.010000  0.330000  0.000000
 -0.010000  0.320000  0.000000
 -0.010000  0.310000  0.000000
 -0.010000  0.300000  0.000000
 -0.010000  0.290000  0.000000
 -0.010000  0.280000  0.000000
 -0.010000  0.270000  0.000000
 -0.010000  0.260000  0.000000
 -0.010000  0.250000  0.000000
 -0.010000  0.240000  0.000000
 -0.010000  0.230000  0.000000
 -0.010000  0.220000  0.000000
 -0.010000  0.210000  0.000000
 -0.010000  0.200000  0.000000
 -0.010000  0.190000  0.000000
 -0.010000  0.180000  0.000000
 -0.010000  0.170000  0.000000
 -0.010000  0.160000  0.000000
 -0.010000  0.150000  0.000000
 -0.010000  0.140000  0.000000
 -0.010000  0.130000  0.000000
 -0.010000  0.120000  0.000000
 -0.010000  0.110000  0.000000
 -0.010000  0.100000  0.000000
 -0.010000  0.090000  0.000000
 -0.010000  0.080000  0.000000
 -0.010000  0.070000  0.000000
 -0.010000  0.060000  0.000000
 -0.010000  0.050000  0.000000
 -0.010000  0.040000  0.000000
 -0.010000  0.030000  0.000000
 -0.010000  0.020000  0.000000
 -0.010000  0.010000  0.000000
 -0.100000 -0.010000  0.000000
 -0.090000 -0.010000  0.000000
 -0.080000 -0.010000  0.000000
 -0.070000 -0.010000  0.000000
 -0.060000 -0.010000  0.000000
 -0.050000 -0.010000  0.000000
 -0.040000 -0.010000  0.000000
 -0.030000 -0.010000  0.000000