<?xml version="1.0" encoding="UTF-8"?>
<VTKFile type="UnstructuredGrid" version="1.0" byte_order="LittleEndian">
<UnstructuredGrid>
  <Piece NumberOfPoints="1555" NumberOfCells="1555">
      <PointData>
        <DataArray type="Int32" Name="Type" format="ascii">
 1 1 1 1 1 1 1 1 1 1
 1 1 1 1 1 1 1 1 1 1
 1 1 1 1 1 1 1 1 1 1
 1 1 1 1 1 1 1 1 1 1
 1 1 1 1 1 1 1 1 1 1
 1 1 1 1 1 1 1 1 1 1
 1 3 3 3 3 3 3 3 3 3
 3 3 3 3 3 3 3 3 3 3
 3 3 3 3 3 3 3 3 3 3
 3 3 3 3 3 3 3 3 3 3
 3 3 3 3 3 3 3 3 3 3
 3 3 3 3 3 3 3 3 3 3
 3 3 3 3 3 3 3 3 3 3
 1 1 1 1 1 1 1 1 1 1
 1 1 1 1 1 1 1 1 1 1
 1 1 1 1 1 1 1 1 1 1
 1 1 1 1 1 1 1 1 1 1
 1 1 1 1 1 1 1 1 1 1
 1 1 1 1 1 1 1 1 1 1
 1 2 2 2 2 2 2 2 2 2
 2 2 2 2 2 2 2 2 2 2
 2 2 2 2 2 2 2 2 2 2
 2 2 2 2 2 2 2 2 2 2
 2 2 2 2 2 2 2 2 2 2
 2 2 2 2 2 2 2 2 2 2
 2 2 2 2 2 2 2 2 2 2
 2 2 2 2 2 2 2 2 2 2
 2 2 2 2 2 2 2 2 2 2
 2 2 2 2 2 2 2 2 2 2
 2 2 2 2 2 2 2 2 2 2
 2 2 2 2 2 2 2 2 2 2
 2 2 2 2 2 2 2 2 2 2
 2 2 2 2 2 2 2 2 2 2
 2 2 2 2 2 2 2 2 2 2
 2 2 2 2 2 2 2 2 2 2
 2 2 2 2 2 2 2 2 2 2
 2 2 2 2 2 2 2 2 2 2
 2 2 2 2 2 2 2 2 2 2
 2 2 2 2 2 2 2 2 2 2
 2 2 2 2 2 2 2 2 2 2
 2 2 2 2 2 2 2 2 2 2
 2 2 2 2 2 2 2 2 2 2
 2 2 2 2 2 2 2 2 2 2
 2 2 2 2 2 2 2 2 2 2
 2 2 2 2 2 2 2 2 2 2
 2 2 2 2 2 2 2 2 2 2
 2 2 2 2 2 2 2 2 2 2
 2 2 2 2 2 2 2 2 2 2
 2 2 2 2 2 2 2 2 2 2
 2 2 2 2 2 2 2 2 2 2
 2 2 2 2 2 2 2 2 2 2
 2 2 2 2 2 2 2 2 2 2
 2 2 2 2 2 2 2 2 2 2
 2 2 2 2 2 2 2 2 2 2
 2 2 2 2 2 2 2 2 2 2
 2 2 2 2 2 2 2 2 2 2
 2 2 2 2 2 2 2 2 2 2
 2 2 2 2 2 2 2 2 2 2
 2 2 2 2 2 2 2 2 2 2
 2 2 2 2 2 2 2 2 2 2
 2 2 2 2 2 2 2 2 2 2
 2 2 2 2 2 2 2 2 2 2
 2 2 2 2 2 2 2 2 2 2
 2 2 2 2 2 2 2 2 2 2
 2 2 2 2 2 2 2 2 2 2
 2 2 2 2 2 2 2 2 2 2
 2 2 2 2 2 2 2 2 2 2
 2 2 2 2 2 2 2 2 2 2
 2 2 2 2 2 2 2 2 2 2
 2 2 2 2 2 2 2 2 2 2
 2 2 2 2 2 2 2 2 2 2
 2 2 2 2 2 2 2 2 2 2
 2 2 2 2 2 2 2 2 2 2
 2 2 2 2 2 2 2 2 2 2
 2 2 2 2 2 2 2 2 2 2
 2 2 2 2 2 2 2 2 2 2
 2 2 2 2 2 2 2 2 2 2
 2 2 2 2 2 2 2 2 2 2
 2 2 2 2 2 2 2 2 2 2
 2 0 0 0 0 0 0 0 0 0
 0 0 0 0 0 0 0 0 0 0
 0 0 0 0 0 0 0 0 0 0
 0 0 0 0 0 0 0 0 0 0
 0 0 0 0 0 0 0 0 0 0
 0 0 0 0 0 0 0 0 0 0
 0 0 0 0 0 0 0 0 0 0
 0 0 0 0 0 0 0 0 0 0
 0 0 0 0 0 0 0 0 0 0
 0 0 0 0 0 0 0 0 0 0
 0 0 0 0 0 0 0 0 0 0
 0 0 0 0 0 0 0 0 0 0
 0 0 0 0 0 0 0 0 0 0
 0 0 0 0 0 0 0 0 0 0
 0 0 0 0 0 0 0 0 0 0
 0 0 0 0 0 0 0 0 0 0
 0 0 0 0 0 0 0 0 0 0
 0 0 0 0 0 0 0 0 0 0
 0 0 0 0 0 0 0 0 0 0
 0 0 0 0 0 0 0 0 0 0
 0 0 0 0 0 0 0 0 0 0
 0 0 0 0 0 0 0 0 0 0
 0 0 0 0 0 0 0 0 0 0
 0 0 0 0 0 0 0 0 0 0
 0 0 0 0 0 0 0 0 0 0
 0 0 0 0 0 0 0 0 0 0
 0 0 0 0 0 0 0 0 0 0
 0 0 0 0 0 0 0 0 0 0
 0 0 0 0 0 0 0 0 0 0
 0 0 0 0 0 0 0 0 0 0
 0 0 0 0 0 0 0 0 0 0
 0 0 0 0 0 0 0 0 0 0
 0 0 0 0 0 0 0 0 0 0
 0 0 0 0 0 0 0 0 0 0
 0 0 0 0 0 0 0 0 0 0
 0 0 0 0 0 0 0 0 0 0
 0 0 0 0 0 0 0 0 0 0
 0 0 0 0 0 0 0 0 0 0
 0 0 0 0 0 0 0 0 0 0
 0 0 0 0 0 0 0 0 0 0
 0 0 0 0 0 0 0 0 0 0
 0 0 0 0 0 0 0 0 0 0
 0 0 0 0 0 0 0 0 0 0
 0 0 0 0 0 0 0 0 0 0
 0 0 0 0 0 0 0 0 0 0
 0 0 0 0 0 0 0 0 0 0
 0 0 0 0 0 0 0 0 0 0
 0 0 0 0 0 0 0 0 0 0
 0 0 0 0 0 0 0 0 0 0
 0 0 0 0 0 0 0 0 0 0
 0 0 0 0 0 0 0 0 0 0
 0 0 0 0 0 0 0 0 0 0
 0 0 0 0 0 0 0 0 0 0
 0 0 0 0 0 0 0 0 0 0
 0 0 0 0 0 0 0 0 0 0
 0 0 0 0 0 0 0 0 0 0
 0 0 0 0 0 0 0 0 0 0
 0 0 0 0 0 0 0 0 0 0
 0 0 0 0 0 0 0 0 0 0
 0 0 0 0 0 0 0 0 0 0
 0 0 0 0 0 0 0 0 0 0
 0 0 0 0 0 0 0 0 0 0
 0 0 0 0 0 0 0 0 0 0
 0 0 0 0 0 0 0 0 0 0
 0 0 0 0 0 0 0 0 0 0
 0 0 0 0 0 0 0 0 0 0
 0 0 0 0 0 0 0 0 0 0
 0 0 0 0 0 0 0 0 0 0
 0 0 0 0 0 0 0 0 0 0
 0 0 0 0 0 0 0 0 0 0
 0 0 0 0 0 0 0 0 0 0
 0 0 0 0 0 0 0 0 0 0
 0 0 0 0 0 0 0 0 0 0
 0 0 0 0 0 0 0 0 0 0
 0 0 0 0 0 0 0 0 0 0
 0 0 0 0 0 0 0 0 0 0
 0 0 0 0 0
        </DataArray>
      </PointData>
      <Points>
        <DataArray type="Float32" NumberOfComponents="3" format="ascii">
  0.000000  0.500000  0.000000
  0.000000  0.490000  0.000000
  0.000000  0.480000  0.000000
  0.000000  0.470000  0.000000
  0.000000  0.460000  0.000000
  0.000000  0.450000  0.000000
  0.000000  0.440000  0.000000
  0.000000  0.430000  0.000000
  0.000000  0.420000  0.000000
  0.000000  0.410000  0.000000
  0.000000  0.400000  0.000000
  0.000000  0.390000  0.000000
  0.000000  0.380000  0.000000
  0.000000  0.370000  0.000000
  0.000000  0.360000  0.000000
  0.000000  0.350000  0.000000
  0.000000  0.340000  0.000000
  0.000000  0.330000  0.000000
  0.000000  0.320000  0.000000
  0.000000  0.310000  0.000000
  0.000000  0.300000  0.000000
  0.000000  0.290000  0.000000
  0.000000  0.280000  0.000000
  0.000000  0.270000  0.000000
  0.000000  0.260000  0.000000
  0.000000  0.250000  0.000000
  0.000000  0.240000  0.000000
  0.000000  0.230000  0.000000
  0.000000  0.220000  0.000000
  0.000000  0.210000  0.000000
  0.000000  0.200000  0.000000
  0.000000  0.190000  0.000000
  0.000000  0.180000  0.000000
  0.000000  0.170000  0.000000
  0.000000  0.160000  0.000000
  0.000000  0.150000  0.000000
  0.000000  0.140000  0.000000
  0.000000  0.130000  0.000000
  0.000000  0.120000  0.000000
  0.000000  0.110000  0.000000
  0.000000  0.100000  0.000000
  0.000000  0.090000  0.000000
  0.000000  0.080000  0.000000
  0.000000  0.070000  0.000000
  0.000000  0.060000  0.000000
  0.000000  0.050000  0.000000
  0.000000  0.040000  0.000000
  0.000000  0.030000  0.000000
  0.000000  0.020000  0.000000
  0.000000  0.010000  0.000000
 -0.100000  0.000000  0.000000
 -0.090000  0.000000  0.000000
 -0.080000  0.000000  0.000000
 -0.070000  0.000000  0.000000
 -0.060000  0.000000  0.000000
 -0.050000  0.000000  0.000000
 -0.040000  0.000000  0.000000
 -0.030000  0.000000  0.000000
 -0.020000  0.000000  0.000000
 -0.010000  0.000000  0.000000
 -0.000000  0.000000  0.000000
  0.010000  0.000000  0.000000
  0.020000  0.000000  0.000000
  0.030000  0.000000  0.000000
  0.040000  0.000000  0.000000
  0.050000  0.000000  0.000000
  0.060000  0.000000  0.000000
  0.070000  0.000000  0.000000
  0.080000  0.000000  0.000000
  0.090000  0.000000  0.000000
  0.100000  0.000000  0.000000
  0.110000  0.000000  0.000000
  0.120000  0.000000  0.000000
  0.130000  0.000000  0.000000
  0.140000  0.000000  0.000000
  0.150000  0.000000  0.000000
  0.160000  0.000000  0.000000
  0.170000  0.000000  0.000000
  0.180000  0.000000  0.000000
  0.190000  0.000000  0.000000
  0.200000  0.000000  0.000000
  0.210000  0.000000  0.000000
  0.220000  0.000000  0.000000
  0.230000  0.000000  0.000000
  0.240000  0.000000  0.000000
  0.250000  0.000000  0.000000
  0.260000  0.000000  0.000000
  0.270000  0.000000  0.000000
  0.280000  0.000000  0.000000
  0.290000  0.000000  0.000000
  0.300000  0.000000  0.000000
  0.310000  0.000000  0.000000
  0.320000  0.000000  0.000000
  0.330000  0.000000  0.000000
  0.340000  0.000000  0.000000
  0.350000  0.000000  0.000000
  0.360000  0.000000  0.000000
  0.370000  0.000000  0.000000
  0.380000  0.000000  0.000000
  0.390000  0.000000  0.000000
  0.400000  0.000000  0.000000
  0.410000  0.000000  0.000000
  0.420000  0.000000  0.000000
  0.430000  0.000000  0.000000
  0.440000  0.000000  0.000000
  0.450000  0.000000  0.000000
  0.460000  0.000000  0.000000
  0.470000  0.000000  0.000000
  0.480000  0.000000  0.000000
  0.490000  0.000000  0.000000
  0.500000  0.000000  0.000000
  0.510000  0.000000  0.000000
  0.520000  0.000000  0.000000
  0.530000  0.000000  0.000000
  0.540000  0.000000  0.000000
  0.550000  0.000000  0.000000
  0.560000  0.000000  0.000000
  0.570000  0.000000  0.000000
  0.580000  0.000000  0.000000
  0.590000  0.000000  0.000000
  0.600000  0.000000  0.000000
  0.610000  0.000000  0.000000
  0.620000  0.000000  0.000000
  0.630000  0.000000  0.000000
  0.640000  0.000000  0.000000
  0.650000  0.000000  0.000000
  0.660000  0.000000  0.000000
  0.670000  0.000000  0.000000
  0.680000  0.000000  0.000000
  0.690000  0.000000  0.000000
  0.700000  0.000000  0.000000
  0.710000  0.000000  0.000000
  0.720000  0.000000  0.000000
  0.730000  0.000000  0.000000
  0.740000  0.000000  0.000000
  0.750000  0.000000  0.000000
  0.760000  0.000000  0.000000
  0.770000  0.000000  0.000000
  0.780000  0.000000  0.000000
  0.790000  0.000000  0.000000
  0.800000  0.000000  0.000000
  0.700000  0.010000  0.000000
  0.700000  0.020000  0.000000
  0.700000  0.030000  0.000000
  0.700000  0.040000  0.000000
  0.700000  0.050000  0.000000
  0.700000  0.060000  0.000000
  0.700000  0.070000  0.000000
  0.700000  0.080000  0.000000
  0.700000  0.090000  0.000000
  0.700000  0.100000  0.000000
  0.700000  0.110000  0.000000
  0.700000  0.120000  0.000000
  0.700000  0.130000  0.000000
  0.700000  0.140000  0.000000
  0.700000  0.150000  0.000000
  0.700000  0.160000  0.000000
  0.700000  0.170000  0.000000
  0.700000  0.180000  0.000000
  0.700000  0.190000  0.000000
  0.700000  0.200000  0.000000
  0.700000  0.210000  0.000000
  0.700000  0.220000  0.000000
  0.700000  0.230000  0.000000
  0.700000  0.240000  0.000000
  0.700000  0.250000  0.000000
  0.700000  0.260000  0.000000
  0.700000  0.270000  0.000000
  0.700000  0.280000  0.000000
  0.700000  0.290000  0.000000
  0.700000  0.300000  0.000000
  0.700000  0.310000  0.000000
  0.700000  0.320000  0.000000
  0.700000  0.330000  0.000000
  0.700000  0.340000  0.000000
  0.700000  0.350000  0.000000
  0.700000  0.360000  0.000000
  0.700000  0.370000  0.000000
  0.700000  0.380000  0.000000
  0.700000  0.390000  0.000000
  0.700000  0.400000  0.000000
  0.700000  0.410000  0.000000
  0.700000  0.420000  0.000000
  0.700000  0.430000  0.000000
  0.700000  0.440000  0.000000
  0.700000  0.450000  0.000000
  0.700000  0.460000  0.000000
  0.700000  0.470000  0.000000
  0.700000  0.480000  0.000000
  0.700000  0.490000  0.000000
  0.700000  0.500000  0.000000
  0.010105  0.009913  0.000000
  0.011240  0.019905  0.000000
  0.027700  0.015710  0.000000
  0.011643  0.026167  0.000000
  0.022630  0.028085  0.000000
  0.011102  0.035272  0.000000
  0.020811  0.039430  0.000000
  0.010398  0.043438  0.000000
  0.018964  0.051535  0.000000
  0.008698  0.054330  0.000000
  0.013514  0.062931  0.000000
  0.011566  0.069230  0.000000
  0.010690  0.076973  0.000000
  0.011562  0.084591  0.000000
  0.011448  0.092123  0.000000
  0.010782  0.099910  0.000000
  0.011347  0.107570  0.000000
  0.010881  0.115532  0.000000
  0.011093  0.123216  0.000000
  0.011061  0.130929  0.000000
  0.011140  0.138920  0.000000
  0.011142  0.146514  0.000000
  0.010875  0.154490  0.000000
  0.011340  0.162395  0.000000
  0.010536  0.170480  0.000000
  0.011600  0.178439  0.000000
  0.009965  0.186719  0.000000
  0.011799  0.195268  0.000000
  0.009436  0.203418  0.000000
  0.012799  0.211506  0.000000
  0.030846  0.008800  0.000000
  0.018497  0.010758  0.000000
  0.039370  0.018863  0.000000
  0.029048  0.023895  0.000000
  0.038178  0.032136  0.000000
  0.031015  0.035707  0.000000
  0.039012  0.043732  0.000000
  0.026896  0.046244  0.000000
  0.034431  0.054738  0.000000
  0.024233  0.058511  0.000000
  0.028894  0.066458  0.000000
  0.025553  0.071637  0.000000
  0.027094  0.078969  0.000000
  0.024801  0.084618  0.000000
  0.025874  0.092249  0.000000
  0.025501  0.098198  0.000000
  0.025161  0.105629  0.000000
  0.025224  0.111895  0.000000
  0.025344  0.119207  0.000000
  0.025261  0.125996  0.000000
  0.025097  0.133003  0.000000
  0.024980  0.140363  0.000000
  0.024808  0.147717  0.000000
  0.024548  0.155367  0.000000
  0.024166  0.163423  0.000000
  0.023759  0.171773  0.000000
  0.023230  0.180617  0.000000
  0.022852  0.189661  0.000000
  0.022075  0.199439  0.000000
  0.021612  0.209645  0.000000
  0.052647  0.010143  0.000000
  0.043373  0.009335  0.000000
  0.053281  0.018692  0.000000
  0.045451  0.024124  0.000000
  0.055641  0.029115  0.000000
  0.049956  0.034751  0.000000
  0.058930  0.041566  0.000000
  0.044275  0.044511  0.000000
  0.051795  0.053605  0.000000
  0.040327  0.057902  0.000000
  0.044789  0.065589  0.000000
  0.042468  0.071321  0.000000
  0.041309  0.078299  0.000000
  0.041431  0.084552  0.000000
  0.041665  0.091068  0.000000
  0.040320  0.097427  0.000000
  0.040623  0.104308  0.000000
  0.040079  0.110796  0.000000
  0.039843  0.117822  0.000000
  0.039329  0.124853  0.000000
  0.038864  0.132400  0.000000
  0.038100  0.140231  0.000000
  0.037078  0.148581  0.000000
  0.036046  0.157148  0.000000
  0.034966  0.166098  0.000000
  0.034228  0.175092  0.000000
  0.033265  0.184033  0.000000
  0.032938  0.193138  0.000000
  0.032204  0.202021  0.000000
  0.031612  0.210244  0.000000
  0.070212  0.009417  0.000000
  0.063891  0.011516  0.000000
  0.073809  0.022340  0.000000
  0.064837  0.021810  0.000000
  0.074771  0.032897  0.000000
  0.065810  0.032370  0.000000
  0.074466  0.042315  0.000000
  0.059847  0.045430  0.000000
  0.067451  0.056244  0.000000
  0.055089  0.058441  0.000000
  0.062653  0.066595  0.000000
  0.057048  0.070101  0.000000
  0.059042  0.078143  0.000000
  0.056516  0.082759  0.000000
  0.056807  0.090702  0.000000
  0.056366  0.096344  0.000000
  0.055511  0.103644  0.000000
  0.054905  0.110058  0.000000
  0.053970  0.117548  0.000000
  0.052853  0.124662  0.000000
  0.051437  0.132455  0.000000
  0.050226  0.140093  0.000000
  0.049176  0.148047  0.000000
  0.048232  0.155898  0.000000
  0.047446  0.163868  0.000000
  0.046676  0.171922  0.000000
  0.045766  0.180416  0.000000
  0.044948  0.189136  0.000000
  0.043908  0.198389  0.000000
  0.043441  0.208256  0.000000
  0.088418  0.011356  0.000000
  0.081610  0.010356  0.000000
  0.091615  0.019719  0.000000
  0.080643  0.023110  0.000000
  0.094218  0.029187  0.000000
  0.088620  0.032584  0.000000
  0.082288  0.041539  0.000000
  0.088347  0.048012  0.000000
  0.071126  0.051083  0.000000
  0.082286  0.057550  0.000000
  0.076038  0.062624  0.000000
  0.075498  0.069383  0.000000
  0.074451  0.076189  0.000000
  0.073059  0.082421  0.000000
  0.072751  0.088736  0.000000
  0.071428  0.095351  0.000000
  0.070650  0.102310  0.000000
  0.069038  0.109254  0.000000
  0.067791  0.116506  0.000000
  0.066391  0.123734  0.000000
  0.065194  0.131195  0.000000
  0.063945  0.138701  0.000000
  0.062633  0.146512  0.000000
  0.061201  0.154585  0.000000
  0.059604  0.163162  0.000000
  0.058008  0.172102  0.000000
  0.056454  0.181191  0.000000
  0.055054  0.190442  0.000000
  0.053892  0.199735  0.000000
  0.053001  0.208274  0.000000
  0.108759  0.012215  0.000000
  0.099463  0.008214  0.000000
  0.109989  0.022404  0.000000
  0.100738  0.020426  0.000000
  0.113835  0.030282  0.000000
  0.105241  0.034604  0.000000
  0.108937  0.040331  0.000000
  0.095428  0.040672  0.000000
  0.102074  0.051267  0.000000
  0.092553  0.054300  0.000000
  0.095627  0.063275  0.000000
  0.091546  0.067746  0.000000
  0.090845  0.074975  0.000000
  0.089740  0.080424  0.000000
  0.088054  0.087525  0.000000
  0.086794  0.093951  0.000000
  0.084952  0.100890  0.000000
  0.083651  0.107470  0.000000
  0.082088  0.114792  0.000000
  0.080613  0.121867  0.000000
  0.078891  0.129346  0.000000
  0.076970  0.137096  0.000000
  0.074935  0.145132  0.000000
  0.072963  0.153433  0.000000
  0.071220  0.161796  0.000000
  0.069753  0.170140  0.000000
  0.068360  0.178709  0.000000
  0.067109  0.187458  0.000000
  0.065738  0.196583  0.000000
  0.065070  0.206129  0.000000
  0.128376  0.010000  0.000000
  0.117100  0.009256  0.000000
  0.129604  0.018466  0.000000
  0.119007  0.019537  0.000000
  0.136141  0.028669  0.000000
  0.126607  0.028888  0.000000
  0.124000  0.036222  0.000000
  0.120897  0.044291  0.000000
  0.109739  0.049034  0.000000
  0.117381  0.055604  0.000000
  0.109293  0.060881  0.000000
  0.109184  0.066690  0.000000
  0.107612  0.073779  0.000000
  0.105210  0.079410  0.000000
  0.103858  0.086676  0.000000
  0.102044  0.092586  0.000000
  0.100580  0.099538  0.000000
  0.098694  0.106325  0.000000
  0.096749  0.113447  0.000000
  0.094669  0.120359  0.000000
  0.092236  0.128104  0.000000
  0.089991  0.135714  0.000000
  0.087863  0.143707  0.000000
  0.085937  0.151712  0.000000
  0.083984  0.160062  0.000000
  0.081941  0.168765  0.000000
  0.079851  0.177745  0.000000
  0.077691  0.187031  0.000000
  0.075788  0.196542  0.000000
  0.074490  0.205407  0.000000
  0.148412  0.012332  0.000000
  0.139327  0.009387  0.000000
  0.152965  0.021982  0.000000
  0.139588  0.018779  0.000000
  0.156234  0.027754  0.000000
  0.143885  0.030722  0.000000
  0.148016  0.036701  0.000000
  0.133091  0.040927  0.000000
  0.137220  0.046667  0.000000
  0.128377  0.051394  0.000000
  0.130474  0.058976  0.000000
  0.125587  0.064002  0.000000
  0.124037  0.070964  0.000000
  0.122012  0.077080  0.000000
  0.120095  0.083460  0.000000
  0.118373  0.089903  0.000000
  0.115925  0.096839  0.000000
  0.113945  0.103499  0.000000
  0.111484  0.110510  0.000000
  0.108825  0.117979  0.000000
  0.106281  0.125492  0.000000
  0.103757  0.133122  0.000000
  0.101142  0.141200  0.000000
  0.098520  0.149432  0.000000
  0.095881  0.157930  0.000000
  0.093426  0.166627  0.000000
  0.091216  0.175496  0.000000
  0.089324  0.184422  0.000000
  0.087494  0.193676  0.000000
  0.086572  0.203107  0.000000
  0.169431  0.009500  0.000000
  0.157200  0.009089  0.000000
  0.174725  0.017124  0.000000
  0.161765  0.016893  0.000000
  0.175166  0.027263  0.000000
  0.169479  0.026645  0.000000
  0.162762  0.035638  0.000000
  0.159417  0.041137  0.000000
  0.148018  0.045874  0.000000
  0.151460  0.051916  0.000000
  0.145678  0.057416  0.000000
  0.142758  0.063140  0.000000
  0.141642  0.070339  0.000000
  0.137955  0.074919  0.000000
  0.136946  0.082192  0.000000
  0.133730  0.088113  0.000000
  0.131836  0.094914  0.000000
  0.129241  0.101254  0.000000
  0.126224  0.108623  0.000000
  0.123572  0.115600  0.000000
  0.120407  0.122982  0.000000
  0.117159  0.130904  0.000000
  0.114029  0.138874  0.000000
  0.111052  0.147159  0.000000
  0.108357  0.155661  0.000000
  0.105849  0.164358  0.000000
  0.103270  0.173336  0.000000
  0.100546  0.182665  0.000000
  0.097970  0.192280  0.000000
  0.096195  0.201434  0.000000
  0.193924  0.008957  0.000000
  0.181348  0.009568  0.000000
  0.199071  0.018202  0.000000
  0.186058  0.016400  0.000000
  0.195606  0.025951  0.000000
  0.188685  0.026582  0.000000
  0.184209  0.034839  0.000000
  0.176893  0.038713  0.000000
  0.170803  0.044400  0.000000
  0.169452  0.050347  0.000000
  0.163016  0.055774  0.000000
  0.162430  0.062083  0.000000
  0.157584  0.066953  0.000000
  0.157159  0.073440  0.000000
  0.153165  0.079806  0.000000
  0.151333  0.085118  0.000000
  0.148274  0.092223  0.000000
  0.145254  0.098393  0.000000
  0.142191  0.105346  0.000000
  0.138582  0.112367  0.000000
  0.134785  0.119929  0.000000
  0.131184  0.127679  0.000000
  0.127629  0.135786  0.000000
  0.124393  0.143996  0.000000
  0.121130  0.152594  0.000000
  0.117805  0.161452  0.000000
  0.114637  0.170510  0.000000
  0.111785  0.179814  0.000000
  0.109238  0.189364  0.000000
  0.107943  0.198720  0.000000
  0.220143  0.009979  0.000000
  0.204744  0.011769  0.000000
  0.223586  0.017184  0.000000
  0.211508  0.014040  0.000000
  0.216610  0.025332  0.000000
  0.210524  0.027175  0.000000
  0.203023  0.033229  0.000000
  0.199979  0.040706  0.000000
  0.190050  0.041691  0.000000
  0.190667  0.048243  0.000000
  0.182804  0.054347  0.000000
  0.181105  0.058033  0.000000
  0.177145  0.064815  0.000000
  0.174747  0.070677  0.000000
  0.171909  0.076391  0.000000
  0.169107  0.082244  0.000000
  0.165464  0.089078  0.000000
  0.162545  0.094667  0.000000
  0.158247  0.102124  0.000000
  0.154162  0.108735  0.000000
  0.149794  0.116525  0.000000
  0.145508  0.124248  0.000000
  0.141460  0.132293  0.000000
  0.137378  0.140766  0.000000
  0.133498  0.149364  0.000000
  0.130055  0.158368  0.000000
  0.126741  0.167469  0.000000
  0.123513  0.177047  0.000000
  0.120275  0.186797  0.000000
  0.117976  0.196198  0.000000
  0.249517  0.009961  0.000000
  0.232134  0.011043  0.000000
  0.250640  0.014377  0.000000
  0.237343  0.014023  0.000000
  0.241629  0.023602  0.000000
  0.231762  0.025159  0.000000
  0.226013  0.031118  0.000000
  0.223381  0.039869  0.000000
  0.212934  0.037595  0.000000
  0.212349  0.045858  0.000000
  0.204721  0.051867  0.000000
  0.201162  0.054925  0.000000
  0.195533  0.061865  0.000000
  0.195279  0.067231  0.000000
  0.191047  0.073037  0.000000
  0.187496  0.078727  0.000000
  0.184294  0.084911  0.000000
  0.180109  0.091073  0.000000
  0.175242  0.098021  0.000000
  0.170418  0.104732  0.000000
  0.165207  0.112634  0.000000
  0.160316  0.120205  0.000000
  0.155486  0.128448  0.000000
  0.151025  0.136826  0.000000
  0.146900  0.145451  0.000000
  0.142769  0.154530  0.000000
  0.138686  0.163807  0.000000
  0.134752  0.173454  0.000000
  0.131173  0.183443  0.000000
  0.129323  0.192882  0.000000
  0.290689  0.010798  0.000000
  0.269445  0.011921  0.000000
  0.274868  0.011196  0.000000
  0.261623  0.013470  0.000000
  0.270520  0.023079  0.000000
  0.256521  0.023717  0.000000
  0.247968  0.028388  0.000000
  0.248306  0.040160  0.000000
  0.236957  0.034405  0.000000
  0.235266  0.042051  0.000000
  0.228509  0.050725  0.000000
  0.222271  0.050426  0.000000
  0.217228  0.058535  0.000000
  0.216338  0.063455  0.000000
  0.210936  0.069090  0.000000
  0.207533  0.074244  0.000000
  0.203754  0.080558  0.000000
  0.198615  0.086508  0.000000
  0.193372  0.093380  0.000000
  0.187281  0.100452  0.000000
  0.181538  0.107933  0.000000
  0.175791  0.115781  0.000000
  0.170481  0.123754  0.000000
  0.165378  0.132271  0.000000
  0.160199  0.141004  0.000000
  0.155328  0.150303  0.000000
  0.150810  0.159805  0.000000
  0.146690  0.169718  0.000000
  0.142695  0.179883  0.000000
  0.139913  0.189440  0.000000
  0.320770  0.011065  0.000000
  0.301427  0.013977  0.000000
  0.306256  0.010408  0.000000
  0.287874  0.013515  0.000000
  0.299944  0.027034  0.000000
  0.282555  0.021708  0.000000
  0.271610  0.029840  0.000000
  0.275585  0.040434  0.000000
  0.259438  0.030684  0.000000
  0.258530  0.038852  0.000000
  0.254508  0.049895  0.000000
  0.244471  0.046890  0.000000
  0.240020  0.054728  0.000000
  0.238658  0.060096  0.000000
  0.232582  0.066030  0.000000
  0.228591  0.069477  0.000000
  0.224026  0.076480  0.000000
  0.218324  0.081925  0.000000
  0.212106  0.088756  0.000000
  0.205065  0.095671  0.000000
  0.198745  0.102960  0.000000
  0.192248  0.110730  0.000000
  0.186297  0.118654  0.000000
  0.179953  0.127207  0.000000
  0.174045  0.136086  0.000000
  0.168682  0.145466  0.000000
  0.163464  0.155034  0.000000
  0.158298  0.165119  0.000000
  0.153501  0.175672  0.000000
  0.150726  0.185386  0.000000
  0.354960  0.013650  0.000000
  0.338805  0.012050  0.000000
  0.342784  0.010894  0.000000
  0.324385  0.012124  0.000000
  0.318952  0.025442  0.000000
  0.313086  0.018454  0.000000
  0.299035  0.024689  0.000000
  0.301203  0.039217  0.000000
  0.282643  0.027836  0.000000
  0.286416  0.035775  0.000000
  0.281679  0.045747  0.000000
  0.267720  0.042412  0.000000
  0.265084  0.050263  0.000000
  0.263847  0.057446  0.000000
  0.255525  0.061070  0.000000
  0.251249  0.065347  0.000000
  0.246417  0.071799  0.000000
  0.238997  0.077677  0.000000
  0.231767  0.083905  0.000000
  0.224002  0.090718  0.000000
  0.216915  0.097900  0.000000
  0.210006  0.105225  0.000000
  0.202939  0.113055  0.000000
  0.196109  0.121393  0.000000
  0.189036  0.129811  0.000000
  0.182795  0.139806  0.000000
  0.176302  0.149525  0.000000
  0.170433  0.160173  0.000000
  0.165423  0.171108  0.000000
  0.162024  0.180837  0.000000
  0.388176  0.011273  0.000000
  0.380194  0.011302  0.000000
  0.360851  0.010918  0.000000
  0.353385  0.024502  0.000000
  0.347395  0.022174  0.000000
  0.331194  0.020702  0.000000
  0.337566  0.024574  0.000000
  0.330450  0.031171  0.000000
  0.311709  0.028799  0.000000
  0.317763  0.037312  0.000000
  0.309471  0.041728  0.000000
  0.293822  0.038944  0.000000
  0.296910  0.050271  0.000000
  0.288372  0.052062  0.000000
  0.280647  0.056798  0.000000
  0.276241  0.060491  0.000000
  0.269709  0.068007  0.000000
  0.261081  0.072822  0.000000
  0.252411  0.079323  0.000000
  0.244362  0.085396  0.000000
  0.236829  0.092852  0.000000
  0.229183  0.099379  0.000000
  0.221469  0.107184  0.000000
  0.213434  0.115137  0.000000
  0.205902  0.123357  0.000000
  0.197419  0.133355  0.000000
  0.189411  0.143291  0.000000
  0.182949  0.154507  0.000000
  0.176694  0.165667  0.000000
  0.172635  0.175492  0.000000
  0.413719  0.014983  0.000000
  0.413926  0.011419  0.000000
  0.402616  0.011842  0.000000
  0.381573  0.018830  0.000000
  0.383160  0.026967  0.000000
  0.369033  0.012002  0.000000
  0.369038  0.022262  0.000000
  0.366386  0.024696  0.000000
  0.344613  0.036363  0.000000
  0.351512  0.036067  0.000000
  0.338012  0.041467  0.000000
  0.326590  0.036646  0.000000
  0.326183  0.048898  0.000000
  0.316295  0.048539  0.000000
  0.308370  0.053125  0.000000
  0.301718  0.057947  0.000000
  0.292523  0.064665  0.000000
  0.283642  0.068866  0.000000
  0.273873  0.074478  0.000000
  0.266056  0.081080  0.000000
  0.257842  0.087566  0.000000
  0.249672  0.094049  0.000000
  0.240906  0.101073  0.000000
  0.232348  0.108834  0.000000
  0.223328  0.116537  0.000000
  0.214973  0.126203  0.000000
  0.204520  0.134616  0.000000
  0.196609  0.146765  0.000000
  0.189041  0.159622  0.000000
  0.184169  0.169271  0.000000
  0.446836  0.012785  0.000000
  0.445664  0.011472  0.000000
  0.431671  0.011511  0.000000
  0.427734  0.010868  0.000000
  0.419540  0.023003  0.000000
  0.397743  0.011617  0.000000
  0.394825  0.025963  0.000000
  0.400599  0.029194  0.000000
  0.383811  0.032714  0.000000
  0.378992  0.041185  0.000000
  0.368599  0.037310  0.000000
  0.361010  0.034360  0.000000
  0.359099  0.044774  0.000000
  0.347075  0.048163  0.000000
  0.336058  0.049850  0.000000
  0.327299  0.057159  0.000000
  0.317303  0.061072  0.000000
  0.307432  0.066040  0.000000
  0.297803  0.070280  0.000000
  0.289460  0.076551  0.000000
  0.280810  0.083139  0.000000
  0.271405  0.088476  0.000000
  0.262007  0.095574  0.000000
  0.252884  0.102569  0.000000
  0.243612  0.110258  0.000000
  0.233817  0.118024  0.000000
  0.223027  0.127814  0.000000
  0.211414  0.138416  0.000000
  0.201072  0.152579  0.000000
  0.195832  0.161385  0.000000
  0.477252  0.010321  0.000000
  0.463907  0.018914  0.000000
  0.463063  0.009578  0.000000
  0.457668  0.019666  0.000000
  0.459581  0.029719  0.000000
  0.436654  0.021432  0.000000
  0.431769  0.033554  0.000000
  0.431704  0.026068  0.000000
  0.417332  0.027317  0.000000
  0.414236  0.033189  0.000000
  0.402259  0.037008  0.000000
  0.393499  0.039401  0.000000
  0.385470  0.045154  0.000000
  0.371903  0.052259  0.000000
  0.365043  0.050229  0.000000
  0.355005  0.058602  0.000000
  0.343704  0.059787  0.000000
  0.334015  0.062867  0.000000
  0.323111  0.067475  0.000000
  0.314522  0.073343  0.000000
  0.304165  0.078781  0.000000
  0.294114  0.084355  0.000000
  0.283954  0.089980  0.000000
  0.274508  0.097509  0.000000
  0.264569  0.104346  0.000000
  0.254329  0.112286  0.000000
  0.244314  0.120488  0.000000
  0.232184  0.128939  0.000000
  0.218370  0.140227  0.000000
  0.206291  0.153897  0.000000
  0.496515  0.011599  0.000000
  0.490071  0.019212  0.000000
  0.486391  0.013418  0.000000
  0.475530  0.015731  0.000000
  0.471303  0.031115  0.000000
  0.457512  0.035216  0.000000
  0.445832  0.024511  0.000000
  0.436608  0.040691  0.000000
  0.445151  0.037351  0.000000
  0.428743  0.047183  0.000000
  0.427487  0.044708  0.000000
  0.417577  0.045943  0.000000
  0.408680  0.049664  0.000000
  0.399210  0.049050  0.000000
  0.386145  0.053058  0.000000
  0.375172  0.057399  0.000000
  0.364621  0.063330  0.000000
  0.355775  0.064719  0.000000
  0.345413  0.068598  0.000000
  0.333971  0.073575  0.000000
  0.323046  0.077834  0.000000
  0.312763  0.082409  0.000000
  0.302908  0.088246  0.000000
  0.292351  0.095006  0.000000
  0.281076  0.101567  0.000000
  0.270723  0.108276  0.000000
  0.259121  0.115776  0.000000
  0.246882  0.123955  0.000000
  0.234538  0.131691  0.000000
  0.221067  0.141637  0.000000
 -0.010000  0.500000  0.000000
 -0.010000  0.490000  0.000000
 -0.010000  0.480000  0.000000
 -0.010000  0.470000  0.000000
 -0.010000  0.460000  0.000000
 -0.010000  0.450000  0.000000
 -0.010000  0.440000  0.000000
 -0.010000  0.430000  0.000000
 -0.010000  0.420000  0.000000
 -0.010000  0.410000  0.000000
 -0.010000  0.400000  0.000000
 -0.010000  0.390000  0.000000
 -0.010000  0.380000  0.000000
 -0.010000  0.370000  0.000000
 -0.010000  0.360000  0.000000
 -0.010000  0.350000  0.000000
 -0.010000  0.340000  0.000000
 -0.010000  0.330000  0.000000
 -0.010000  0.320000  0.000000
 -0.010000  0.310000  0.000000
 -0.010000  0.300000  0.000000
 -0.010000  0.290000  0.000000
 -0.010000  0.280000  0.000000
 -0.010000  0.270000  0.000000
 -0.010000  0.260000  0.000000
 -0.010000  0.250000  0.000000
 -0.010000  0.240000  0.000000
 -0.010000  0.230000  0.000000
 -0.010000  0.220000  0.000000
 -0.010000  0.210000  0.000000
 -0.010000  0.200000  0.000000
 -0.010000  0.190000  0.000000
 -0.010000  0.180000  0.000000
 -0.010000  0.170000  0.000000
 -0.010000  0.160000  0.000000
 -0.010000  0.150000  0.000000
 -0.010000  0.140000  0.000000
 -0.010000  0.130000  0.000000
 -0.010000  0.120000  0.000000
 -0.010000  0.110000  0.000000
 -0.010000  0.100000  0.000000
 -0.010000  0.090000  0.000000
 -0.010000  0.080000  0.000000
 -0.010000  0.070000  0.000000
 -0.010000  0.060000  0.000000
 -0.010000  0.050000  0.000000
 -0.010000  0.040000  0.000000
 -0.010000  0.030000  0.000000
 -0.010000  0.020000  0.000000
 -0.010000  0.010000  0.000000
 -0.100000 -0.010000  0.000000
 -0.090000 -0.010000  0.000000
 -0.080000 -0.010000  0.000000
 -0.070000 -0.010000  0.000000
 -0.060000 -0.010000  0.000000
 -0.050000 -0.010000  0.000000
 -0.040000 -0.010000  0.000000
 -0.030000 -0.010000  0.000000