<?xml version="1.0" encoding="UTF-8"?>
<VTKFile type="UnstructuredGrid" version="1.0" byte_order="LittleEndian">
<UnstructuredGrid>
  <Piece NumberOfPoints="1544" NumberOfCells="1544">
      <PointData>
        <DataArray type="Int32" Name="Type" format="ascii">
 1 1 1 1 1 1 1 1 1 1
 1 1 1 1 1 1 1 1 1 1
 1 1 1 1 1 1 1 1 1 1
 1 1 1 1 1 1 1 1 1 1
 1 1 1 1 1 1 1 1 1 1
 1 1 1 1 1 1 1 1 1 1
 1 3 3 3 3 3 3 3 3 3
 3 3 3 3 3 3 3 3 3 3
 3 3 3 3 3 3 3 3 3 3
 3 3 3 3 3 3 3 3 3 3
 3 3 3 3 3 3 3 3 3 3
 3 3 3 3 3 3 3 3 3 3
 3 3 3 3 3 3 3 3 3 3
 1 1 1 1 1 1 1 1 1 1
 1 1 1 1 1 1 1 1 1 1
 1 1 1 1 1 1 1 1 1 1
 1 1 1 1 1 1 1 1 1 1
 1 1 1 1 1 1 1 1 1 1
 1 1 1 1 1 1 1 1 1 1
 1 2 2 2 2 2 2 2 2 2
 2 2 2 2 2 2 2 2 2 2
 2 2 2 2 2 2 2 2 2 2
 2 2 2 2 2 2 2 2 2 2
 2 2 2 2 2 2 2 2 2 2
 2 2 2 2 2 2 2 2 2 2
 2 2 2 2 2 2 2 2 2 2
 2 2 2 2 2 2 2 2 2 2
 2 2 2 2 2 2 2 2 2 2
 2 2 2 2 2 2 2 2 2 2
 2 2 2 2 2 2 2 2 2 2
 2 2 2 2 2 2 2 2 2 2
 2 2 2 2 2 2 2 2 2 2
 2 2 2 2 2 2 2 2 2 2
 2 2 2 2 2 2 2 2 2 2
 2 2 2 2 2 2 2 2 2 2
 2 2 2 2 2 2 2 2 2 2
 2 2 2 2 2 2 2 2 2 2
 2 2 2 2 2 2 2 2 2 2
 2 2 2 2 2 2 2 2 2 2
 2 2 2 2 2 2 2 2 2 2
 2 2 2 2 2 2 2 2 2 2
 2 2 2 2 2 2 2 2 2 2
 2 2 2 2 2 2 2 2 2 2
 2 2 2 2 2 2 2 2 2 2
 2 2 2 2 2 2 2 2 2 2
 2 2 2 2 2 2 2 2 2 2
 2 2 2 2 2 2 2 2 2 2
 2 2 2 2 2 2 2 2 2 2
 2 2 2 2 2 2 2 2 2 2
 2 2 2 2 2 2 2 2 2 2
 2 2 2 2 2 2 2 2 2 2
 2 2 2 2 2 2 2 2 2 2
 2 2 2 2 2 2 2 2 2 2
 2 2 2 2 2 2 2 2 2 2
 2 2 2 2 2 2 2 2 2 2
 2 2 2 2 2 2 2 2 2 2
 2 2 2 2 2 2 2 2 2 2
 2 2 2 2 2 2 2 2 2 2
 2 2 2 2 2 2 2 2 2 2
 2 2 2 2 2 2 2 2 2 2
 2 2 2 2 2 2 2 2 2 2
 2 2 2 2 2 2 2 2 2 2
 2 2 2 2 2 2 2 2 2 2
 2 2 2 2 2 2 2 2 2 2
 2 2 2 2 2 2 2 2 2 2
 2 2 2 2 2 2 2 2 2 2
 2 2 2 2 2 2 2 2 2 2
 2 2 2 2 2 2 2 2 2 2
 2 2 2 2 2 2 2 2 2 2
 2 2 2 2 2 2 2 2 2 2
 2 2 2 2 2 2 2 2 2 2
 2 2 2 2 2 2 2 2 2 2
 2 2 2 2 2 2 2 2 2 2
 2 2 2 2 2 2 2 2 2 2
 2 2 2 2 2 2 2 2 2 2
 2 2 2 2 2 2 2 2 2 2
 2 2 2 2 2 2 2 2 2 2
 2 2 2 2 2 2 2 2 2 2
 0 0 0 0 0 0 0 0 0 0
 0 0 0 0 0 0 0 0 0 0
 0 0 0 0 0 0 0 0 0 0
 0 0 0 0 0 0 0 0 0 0
 0 0 0 0 0 0 0 0 0 0
 0 0 0 0 0 0 0 0 0 0
 0 0 0 0 0 0 0 0 0 0
 0 0 0 0 0 0 0 0 0 0
 0 0 0 0 0 0 0 0 0 0
 0 0 0 0 0 0 0 0 0 0
 0 0 0 0 0 0 0 0 0 0
 0 0 0 0 0 0 0 0 0 0
 0 0 0 0 0 0 0 0 0 0
 0 0 0 0 0 0 0 0 0 0
 0 0 0 0 0 0 0 0 0 0
 0 0 0 0 0 0 0 0 0 0
 0 0 0 0 0 0 0 0 0 0
 0 0 0 0 0 0 0 0 0 0
 0 0 0 0 0 0 0 0 0 0
 0 0 0 0 0 0 0 0 0 0
 0 0 0 0 0 0 0 0 0 0
 0 0 0 0 0 0 0 0 0 0
 0 0 0 0 0 0 0 0 0 0
 0 0 0 0 0 0 0 0 0 0
 0 0 0 0 0 0 0 0 0 0
 0 0 0 0 0 0 0 0 0 0
 0 0 0 0 0 0 0 0 0 0
 0 0 0 0 0 0 0 0 0 0
 0 0 0 0 0 0 0 0 0 0
 0 0 0 0 0 0 0 0 0 0
 0 0 0 0 0 0 0 0 0 0
 0 0 0 0 0 0 0 0 0 0
 0 0 0 0 0 0 0 0 0 0
 0 0 0 0 0 0 0 0 0 0
 0 0 0 0 0 0 0 0 0 0
 0 0 0 0 0 0 0 0 0 0
 0 0 0 0 0 0 0 0 0 0
 0 0 0 0 0 0 0 0 0 0
 0 0 0 0 0 0 0 0 0 0
 0 0 0 0 0 0 0 0 0 0
 0 0 0 0 0 0 0 0 0 0
 0 0 0 0 0 0 0 0 0 0
 0 0 0 0 0 0 0 0 0 0
 0 0 0 0 0 0 0 0 0 0
 0 0 0 0 0 0 0 0 0 0
 0 0 0 0 0 0 0 0 0 0
 0 0 0 0 0 0 0 0 0 0
 0 0 0 0 0 0 0 0 0 0
 0 0 0 0 0 0 0 0 0 0
 0 0 0 0 0 0 0 0 0 0
 0 0 0 0 0 0 0 0 0 0
 0 0 0 0 0 0 0 0 0 0
 0 0 0 0 0 0 0 0 0 0
 0 0 0 0 0 0 0 0 0 0
 0 0 0 0 0 0 0 0 0 0
 0 0 0 0 0 0 0 0 0 0
 0 0 0 0 0 0 0 0 0 0
 0 0 0 0 0 0 0 0 0 0
 0 0 0 0 0 0 0 0 0 0
 0 0 0 0 0 0 0 0 0 0
 0 0 0 0 0 0 0 0 0 0
 0 0 0 0 0 0 0 0 0 0
 0 0 0 0 0 0 0 0 0 0
 0 0 0 0 0 0 0 0 0 0
 0 0 0 0 0 0 0 0 0 0
 0 0 0 0 0 0 0 0 0 0
 0 0 0 0 0 0 0 0 0 0
 0 0 0 0 0 0 0 0 0 0
 0 0 0 0 0 0 0 0 0 0
 0 0 0 0 0 0 0 0 0 0
 0 0 0 0 0 0 0 0 0 0
 0 0 0 0 0 0 0 0 0 0
 0 0 0 0 0 0 0 0 0 0
 0 0 0 0 0 0 0 0 0 0
 0 0 0 0 0 0 0 0 0 0
 0 0 0 0 0 0 0 0 0 0
 0 0 0 0
        </DataArray>
      </PointData>
      <Points>
        <DataArray type="Float32" NumberOfComponents="3" format="ascii">
  0.000000  0.500000  0.000000
  0.000000  0.490000  0.000000
  0.000000  0.480000  0.000000
  0.000000  0.470000  0.000000
  0.000000  0.460000  0.000000
  0.000000  0.450000  0.000000
  0.000000  0.440000  0.000000
  0.000000  0.430000  0.000000
  0.000000  0.420000  0.000000
  0.000000  0.410000  0.000000
  0.000000  0.400000  0.000000
  0.000000  0.390000  0.000000
  0.000000  0.380000  0.000000
  0.000000  0.370000  0.000000
  0.000000  0.360000  0.000000
  0.000000  0.350000  0.000000
  0.000000  0.340000  0.000000
  0.000000  0.330000  0.000000
  0.000000  0.320000  0.000000
  0.000000  0.310000  0.000000
  0.000000  0.300000  0.000000
  0.000000  0.290000  0.000000
  0.000000  0.280000  0.000000
  0.000000  0.270000  0.000000
  0.000000  0.260000  0.000000
  0.000000  0.250000  0.000000
  0.000000  0.240000  0.000000
  0.000000  0.230000  0.000000
  0.000000  0.220000  0.000000
  0.000000  0.210000  0.000000
  0.000000  0.200000  0.000000
  0.000000  0.190000  0.000000
  0.000000  0.180000  0.000000
  0.000000  0.170000  0.000000
  0.000000  0.160000  0.000000
  0.000000  0.150000  0.000000
  0.000000  0.140000  0.000000
  0.000000  0.130000  0.000000
  0.000000  0.120000  0.000000
  0.000000  0.110000  0.000000
  0.000000  0.100000  0.000000
  0.000000  0.090000  0.000000
  0.000000  0.080000  0.000000
  0.000000  0.070000  0.000000
  0.000000  0.060000  0.000000
  0.000000  0.050000  0.000000
  0.000000  0.040000  0.000000
  0.000000  0.030000  0.000000
  0.000000  0.020000  0.000000
  0.000000  0.010000  0.000000
 -0.100000  0.000000  0.000000
 -0.090000  0.000000  0.000000
 -0.080000  0.000000  0.000000
 -0.070000  0.000000  0.000000
 -0.060000  0.000000  0.000000
 -0.050000  0.000000  0.000000
 -0.040000  0.000000  0.000000
 -0.030000  0.000000  0.000000
 -0.020000  0.000000  0.000000
 -0.010000  0.000000  0.000000
 -0.000000  0.000000  0.000000
  0.010000  0.000000  0.000000
  0.020000  0.000000  0.000000
  0.030000  0.000000  0.000000
  0.040000  0.000000  0.000000
  0.050000  0.000000  0.000000
  0.060000  0.000000  0.000000
  0.070000  0.000000  0.000000
  0.080000  0.000000  0.000000
  0.090000  0.000000  0.000000
  0.100000  0.000000  0.000000
  0.110000  0.000000  0.000000
  0.120000  0.000000  0.000000
  0.130000  0.000000  0.000000
  0.140000  0.000000  0.000000
  0.150000  0.000000  0.000000
  0.160000  0.000000  0.000000
  0.170000  0.000000  0.000000
  0.180000  0.000000  0.000000
  0.190000  0.000000  0.000000
  0.200000  0.000000  0.000000
  0.210000  0.000000  0.000000
  0.220000  0.000000  0.000000
  0.230000  0.000000  0.000000
  0.240000  0.000000  0.000000
  0.250000  0.000000  0.000000
  0.260000  0.000000  0.000000
  0.270000  0.000000  0.000000
  0.280000  0.000000  0.000000
  0.290000  0.000000  0.000000
  0.300000  0.000000  0.000000
  0.310000  0.000000  0.000000
  0.320000  0.000000  0.000000
  0.330000  0.000000  0.000000
  0.340000  0.000000  0.000000
  0.350000  0.000000  0.000000
  0.360000  0.000000  0.000000
  0.370000  0.000000  0.000000
  0.380000  0.000000  0.000000
  0.390000  0.000000  0.000000
  0.400000  0.000000  0.000000
  0.410000  0.000000  0.000000
  0.420000  0.000000  0.000000
  0.430000  0.000000  0.000000
  0.440000  0.000000  0.000000
  0.450000  0.000000  0.000000
  0.460000  0.000000  0.000000
  0.470000  0.000000  0.000000
  0.480000  0.000000  0.000000
  0.490000  0.000000  0.000000
  0.500000  0.000000  0.000000
  0.510000  0.000000  0.000000
  0.520000  0.000000  0.000000
  0.530000  0.000000  0.000000
  0.540000  0.000000  0.000000
  0.550000  0.000000  0.000000
  0.560000  0.000000  0.000000
  0.570000  0.000000  0.000000
  0.580000  0.000000  0.000000
  0.590000  0.000000  0.000000
  0.600000  0.000000  0.000000
  0.610000  0.000000  0.000000
  0.620000  0.000000  0.000000
  0.630000  0.000000  0.000000
  0.640000  0.000000  0.000000
  0.650000  0.000000  0.000000
  0.660000  0.000000  0.000000
  0.670000  0.000000  0.000000
  0.680000  0.000000  0.000000
  0.690000  0.000000  0.000000
  0.700000  0.000000  0.000000
  0.710000  0.000000  0.000000
  0.720000  0.000000  0.000000
  0.730000  0.000000  0.000000
  0.740000  0.000000  0.000000
  0.750000  0.000000  0.000000
  0.760000  0.000000  0.000000
  0.770000  0.000000  0.000000
  0.780000  0.000000  0.000000
  0.790000  0.000000  0.000000
  0.800000  0.000000  0.000000
  0.700000  0.010000  0.000000
  0.700000  0.020000  0.000000
  0.700000  0.030000  0.000000
  0.700000  0.040000  0.000000
  0.700000  0.050000  0.000000
  0.700000  0.060000  0.000000
  0.700000  0.070000  0.000000
  0.700000  0.080000  0.000000
  0.700000  0.090000  0.000000
  0.700000  0.100000  0.000000
  0.700000  0.110000  0.000000
  0.700000  0.120000  0.000000
  0.700000  0.130000  0.000000
  0.700000  0.140000  0.000000
  0.700000  0.150000  0.000000
  0.700000  0.160000  0.000000
  0.700000  0.170000  0.000000
  0.700000  0.180000  0.000000
  0.700000  0.190000  0.000000
  0.700000  0.200000  0.000000
  0.700000  0.210000  0.000000
  0.700000  0.220000  0.000000
  0.700000  0.230000  0.000000
  0.700000  0.240000  0.000000
  0.700000  0.250000  0.000000
  0.700000  0.260000  0.000000
  0.700000  0.270000  0.000000
  0.700000  0.280000  0.000000
  0.700000  0.290000  0.000000
  0.700000  0.300000  0.000000
  0.700000  0.310000  0.000000
  0.700000  0.320000  0.000000
  0.700000  0.330000  0.000000
  0.700000  0.340000  0.000000
  0.700000  0.350000  0.000000
  0.700000  0.360000  0.000000
  0.700000  0.370000  0.000000
  0.700000  0.380000  0.000000
  0.700000  0.390000  0.000000
  0.700000  0.400000  0.000000
  0.700000  0.410000  0.000000
  0.700000  0.420000  0.000000
  0.700000  0.430000  0.000000
  0.700000  0.440000  0.000000
  0.700000  0.450000  0.000000
  0.700000  0.460000  0.000000
  0.700000  0.470000  0.000000
  0.700000  0.480000  0.000000
  0.700000  0.490000  0.000000
  0.700000  0.500000  0.000000
  0.019834  0.010697  0.000000
  0.025885  0.015346  0.000000
  0.046146  0.015250  0.000000
  0.010606  0.009379  0.000000
  0.055132  0.022099  0.000000
  0.010575  0.019236  0.000000
  0.064615  0.026606  0.000000
  0.060154  0.012311  0.000000
  0.097553  0.026244  0.000000
  0.075396  0.027231  0.000000
  0.084412  0.031885  0.000000
  0.011983  0.026527  0.000000
  0.026367  0.037724  0.000000
  0.009227  0.034985  0.000000
  0.012430  0.043271  0.000000
  0.021967  0.044424  0.000000
  0.054278  0.048530  0.000000
  0.009686  0.051819  0.000000
  0.050338  0.048251  0.000000
  0.011548  0.060358  0.000000
  0.023937  0.052857  0.000000
  0.020073  0.069790  0.000000
  0.010635  0.068116  0.000000
  0.015625  0.084706  0.000000
  0.008804  0.080562  0.000000
  0.037023  0.077164  0.000000
  0.015604  0.092387  0.000000
  0.021709  0.086691  0.000000
  0.026291  0.074912  0.000000
  0.043876  0.091504  0.000000
  0.052940  0.008786  0.000000
  0.034986  0.007670  0.000000
  0.070568  0.010314  0.000000
  0.070195  0.018357  0.000000
  0.095011  0.009592  0.000000
  0.104168  0.016092  0.000000
  0.118906  0.008413  0.000000
  0.080246  0.008564  0.000000
  0.094458  0.026156  0.000000
  0.082529  0.020629  0.000000
  0.053900  0.036130  0.000000
  0.038396  0.015668  0.000000
  0.079047  0.040807  0.000000
  0.036000  0.025452  0.000000
  0.061637  0.039204  0.000000
  0.022608  0.030980  0.000000
  0.024865  0.023262  0.000000
  0.039571  0.030094  0.000000
  0.069155  0.047527  0.000000
  0.035812  0.043149  0.000000
  0.073113  0.052341  0.000000
  0.041857  0.038345  0.000000
  0.022778  0.059847  0.000000
  0.039686  0.061718  0.000000
  0.031394  0.070972  0.000000
  0.047875  0.076025  0.000000
  0.034708  0.058030  0.000000
  0.047031  0.069440  0.000000
  0.047339  0.085951  0.000000
  0.063211  0.083218  0.000000
  0.152427  0.008851  0.000000
  0.105473  0.010354  0.000000
  0.137862  0.009917  0.000000
  0.114542  0.020993  0.000000
  0.133064  0.011336  0.000000
  0.173117  0.007887  0.000000
  0.204200  0.012550  0.000000
  0.148791  0.022602  0.000000
  0.114956  0.029489  0.000000
  0.088472  0.015267  0.000000
  0.132497  0.024917  0.000000
  0.121212  0.014892  0.000000
  0.099086  0.040975  0.000000
  0.104659  0.063195  0.000000
  0.132454  0.049188  0.000000
  0.052038  0.027802  0.000000
  0.085157  0.044418  0.000000
  0.070384  0.035657  0.000000
  0.060270  0.056127  0.000000
  0.038551  0.050709  0.000000
  0.081758  0.056641  0.000000
  0.075598  0.068632  0.000000
  0.068970  0.062429  0.000000
  0.053035  0.063438  0.000000
  0.068664  0.072601  0.000000
  0.058795  0.067441  0.000000
  0.066670  0.084211  0.000000
  0.076364  0.100386  0.000000
  0.079563  0.080580  0.000000
  0.050452  0.089775  0.000000
  0.192847  0.009537  0.000000
  0.164540  0.012427  0.000000
  0.208158  0.012287  0.000000
  0.169152  0.017603  0.000000
  0.197468  0.037360  0.000000
  0.185816  0.011735  0.000000
  0.181100  0.033754  0.000000
  0.185427  0.018516  0.000000
  0.162621  0.031913  0.000000
  0.109828  0.029877  0.000000
  0.175899  0.031433  0.000000
  0.129424  0.022754  0.000000
  0.145695  0.035016  0.000000
  0.094726  0.039265  0.000000
  0.097785  0.053418  0.000000
  0.151920  0.014051  0.000000
  0.111006  0.041177  0.000000
  0.126803  0.036007  0.000000
  0.110971  0.045916  0.000000
  0.113499  0.055890  0.000000
  0.138068  0.051856  0.000000
  0.094054  0.053465  0.000000
  0.085459  0.062285  0.000000
  0.119528  0.063671  0.000000
  0.098689  0.066380  0.000000
  0.081676  0.079487  0.000000
  0.096214  0.088929  0.000000
  0.090489  0.070327  0.000000
  0.082477  0.092736  0.000000
  0.102985  0.084740  0.000000
  0.237467  0.013596  0.000000
  0.220692  0.014388  0.000000
  0.224143  0.009428  0.000000
  0.202642  0.022947  0.000000
  0.276145  0.015399  0.000000
  0.196286  0.028211  0.000000
  0.188813  0.024695  0.000000
  0.212577  0.023011  0.000000
  0.171450  0.023313  0.000000
  0.229252  0.032004  0.000000
  0.158284  0.028135  0.000000
  0.208813  0.034083  0.000000
  0.191967  0.041085  0.000000
  0.175625  0.042629  0.000000
  0.187133  0.056427  0.000000
  0.143252  0.023295  0.000000
  0.160505  0.039489  0.000000
  0.133839  0.037704  0.000000
  0.154169  0.055564  0.000000
  0.123112  0.041345  0.000000
  0.120040  0.053652  0.000000
  0.143836  0.047131  0.000000
  0.131236  0.063779  0.000000
  0.092113  0.077368  0.000000
  0.133264  0.079111  0.000000
  0.109796  0.071601  0.000000
  0.117625  0.072687  0.000000
  0.143782  0.083554  0.000000
  0.125462  0.086401  0.000000
  0.107404  0.080616  0.000000
  0.276824  0.009541  0.000000
  0.252753  0.011815  0.000000
  0.306033  0.018375  0.000000
  0.275255  0.030737  0.000000
  0.321368  0.013851  0.000000
  0.282185  0.035330  0.000000
  0.296045  0.012794  0.000000
  0.261035  0.010001  0.000000
  0.267775  0.019022  0.000000
  0.291210  0.022036  0.000000
  0.245673  0.023473  0.000000
  0.256243  0.018962  0.000000
  0.241433  0.011281  0.000000
  0.212287  0.041326  0.000000
  0.191926  0.053277  0.000000
  0.203399  0.046861  0.000000
  0.148304  0.038366  0.000000
  0.227563  0.041174  0.000000
  0.160713  0.048322  0.000000
  0.182356  0.045678  0.000000
  0.167518  0.048697  0.000000
  0.174655  0.056731  0.000000
  0.130980  0.062000  0.000000
  0.162875  0.070778  0.000000
  0.155750  0.067838  0.000000
  0.152095  0.057551  0.000000
  0.145975  0.070385  0.000000
  0.143143  0.066868  0.000000
  0.120038  0.084020  0.000000
  0.142387  0.080902  0.000000
  0.349546  0.012881  0.000000
  0.288341  0.012452  0.000000
  0.304978  0.009966  0.000000
  0.283932  0.023724  0.000000
  0.386031  0.022929  0.000000
  0.332319  0.012040  0.000000
  0.368255  0.012582  0.000000
  0.317327  0.010799  0.000000
  0.318748  0.023126  0.000000
  0.297766  0.031039  0.000000
  0.305490  0.025234  0.000000
  0.312615  0.035636  0.000000
  0.266559  0.026412  0.000000
  0.226128  0.020478  0.000000
  0.234978  0.023400  0.000000
  0.217509  0.029974  0.000000
  0.220252  0.043009  0.000000
  0.251580  0.036641  0.000000
  0.210380  0.058560  0.000000
  0.202466  0.053151  0.000000
  0.218460  0.054476  0.000000
  0.194843  0.065980  0.000000
  0.172962  0.060050  0.000000
  0.191370  0.066988  0.000000
  0.179447  0.070121  0.000000
  0.179469  0.086727  0.000000
  0.174392  0.093599  0.000000
  0.170606  0.069651  0.000000
  0.163473  0.080656  0.000000
  0.159665  0.081630  0.000000
  0.377656  0.010084  0.000000
  0.366350  0.015516  0.000000
  0.416832  0.027443  0.000000
  0.386822  0.012436  0.000000
  0.452332  0.026637  0.000000
  0.409663  0.012434  0.000000
  0.410749  0.021949  0.000000
  0.383402  0.024636  0.000000
  0.394632  0.012398  0.000000
  0.373528  0.025738  0.000000
  0.354938  0.010312  0.000000
  0.337952  0.011197  0.000000
  0.336423  0.022723  0.000000
  0.287096  0.037932  0.000000
  0.297792  0.047824  0.000000
  0.249792  0.028792  0.000000
  0.236793  0.034911  0.000000
  0.282593  0.051124  0.000000
  0.262490  0.033705  0.000000
  0.277593  0.045577  0.000000
  0.234760  0.054453  0.000000
  0.237938  0.045922  0.000000
  0.245101  0.054519  0.000000
  0.207224  0.068090  0.000000
  0.226130  0.056184  0.000000
  0.215019  0.068236  0.000000
  0.211737  0.077490  0.000000
  0.195205  0.079429  0.000000
  0.183937  0.076055  0.000000
  0.197426  0.083914  0.000000
  0.461570  0.013049  0.000000
  0.436579  0.011266  0.000000
  0.468999  0.016006  0.000000
  0.444591  0.011944  0.000000
  0.489948  0.026579  0.000000
  0.452539  0.010679  0.000000
  0.470554  0.035193  0.000000
  0.421143  0.013488  0.000000
  0.421947  0.010911  0.000000
  0.425310  0.027679  0.000000
  0.365320  0.029750  0.000000
  0.376491  0.035215  0.000000
  0.348465  0.035523  0.000000
  0.360770  0.026952  0.000000
  0.352574  0.020979  0.000000
  0.301675  0.036193  0.000000
  0.322227  0.028040  0.000000
  0.305842  0.052092  0.000000
  0.327830  0.050127  0.000000
  0.291474  0.049368  0.000000
  0.264863  0.041642  0.000000
  0.259364  0.045269  0.000000
  0.252201  0.056291  0.000000
  0.245545  0.042262  0.000000
  0.258287  0.056068  0.000000
  0.232785  0.072073  0.000000
  0.228410  0.067193  0.000000
  0.227483  0.079937  0.000000
  0.242939  0.076639  0.000000
  0.205960  0.082228  0.000000
  0.541627  0.017752  0.000000
  0.463984  0.027309  0.000000
  0.554498  0.013349  0.000000
  0.520188  0.012734  0.000000
  0.574059  0.027720  0.000000
  0.512272  0.010789  0.000000
  0.555966  0.026168  0.000000
  0.494056  0.017648  0.000000
  0.474672  0.025675  0.000000
  0.432730  0.020327  0.000000
  0.437182  0.038433  0.000000
  0.424880  0.035817  0.000000
  0.348263  0.029292  0.000000
  0.402094  0.011213  0.000000
  0.399483  0.024045  0.000000
  0.399814  0.030226  0.000000
  0.337268  0.040752  0.000000
  0.337053  0.023971  0.000000
  0.332142  0.038624  0.000000
  0.310370  0.041650  0.000000
  0.324299  0.034661  0.000000
  0.292563  0.064271  0.000000
  0.314667  0.052165  0.000000
  0.273048  0.055876  0.000000
  0.303445  0.073626  0.000000
  0.282688  0.065325  0.000000
  0.269019  0.053903  0.000000
  0.259200  0.066432  0.000000
  0.238433  0.063448  0.000000
  0.248715  0.072069  0.000000
  0.585198  0.027120  0.000000
  0.535895  0.027460  0.000000
  0.629597  0.011953  0.000000
  0.567575  0.011217  0.000000
  0.615673  0.018436  0.000000
  0.561526  0.014577  0.000000
  0.588263  0.011806  0.000000
  0.578052  0.011821  0.000000
  0.534410  0.010253  0.000000
  0.495443  0.012101  0.000000
  0.530450  0.014329  0.000000
  0.454965  0.020772  0.000000
  0.480158  0.019065  0.000000
  0.492464  0.043209  0.000000
  0.465497  0.048648  0.000000
  0.407577  0.033975  0.000000
  0.413184  0.041700  0.000000
  0.390617  0.037281  0.000000
  0.379787  0.044008  0.000000
  0.365222  0.061213  0.000000
  0.367251  0.053981  0.000000
  0.351476  0.050302  0.000000
  0.322990  0.050107  0.000000
  0.330125  0.075234  0.000000
  0.298410  0.059250  0.000000
  0.283180  0.066661  0.000000
  0.312170  0.078504  0.000000
  0.269876  0.073436  0.000000
  0.269232  0.071218  0.000000
  0.253864  0.073358  0.000000
  0.652306  0.026541  0.000000
  0.634014  0.012886  0.000000
  0.656678  0.033617  0.000000
  0.649275  0.010054  0.000000
  0.659585  0.011575  0.000000
  0.643775  0.013449  0.000000
  0.619972  0.012094  0.000000
  0.602976  0.012604  0.000000
  0.608972  0.011582  0.000000
  0.586447  0.028320  0.000000
  0.575953  0.016777  0.000000
  0.548318  0.010333  0.000000
  0.528007  0.026745  0.000000
  0.518826  0.022543  0.000000
  0.474516  0.009960  0.000000
  0.475793  0.038880  0.000000
  0.454341  0.038071  0.000000
  0.458448  0.038004  0.000000
  0.447728  0.050823  0.000000
  0.445352  0.041681  0.000000
  0.405479  0.046173  0.000000
  0.421254  0.043987  0.000000
  0.365829  0.043316  0.000000
  0.369278  0.043404  0.000000
  0.353610  0.042210  0.000000
  0.331739  0.060627  0.000000
  0.308057  0.074459  0.000000
  0.316671  0.065754  0.000000
  0.312996  0.061796  0.000000
  0.293810  0.073695  0.000000
  0.674431  0.029481  0.000000
  0.664416  0.094813  0.000000
  0.681523  0.047915  0.000000
  0.677052  0.016898  0.000000
  0.670042  0.076649  0.000000
  0.666845  0.036323  0.000000
  0.665395  0.043164  0.000000
  0.654493  0.047269  0.000000
  0.645093  0.024525  0.000000
  0.628745  0.028629  0.000000
  0.623858  0.025576  0.000000
  0.593131  0.012006  0.000000
  0.575691  0.048420  0.000000
  0.593287  0.054086  0.000000
  0.516156  0.036123  0.000000
  0.542629  0.057517  0.000000
  0.508720  0.023869  0.000000
  0.506431  0.013276  0.000000
  0.486553  0.009950  0.000000
  0.537960  0.043102  0.000000
  0.485175  0.031144  0.000000
  0.469746  0.060173  0.000000
  0.437566  0.023452  0.000000
  0.418791  0.062605  0.000000
  0.412402  0.054145  0.000000
  0.382457  0.056281  0.000000
  0.356383  0.058268  0.000000
  0.343314  0.046709  0.000000
  0.338294  0.056875  0.000000
  0.328189  0.066479  0.000000
  0.690950  0.078484  0.000000
  0.666092  0.087554  0.000000
  0.681886  0.030912  0.000000
  0.676158  0.043603  0.000000
  0.656250  0.158275  0.000000
  0.668155  0.010261  0.000000
  0.679320  0.077485  0.000000
  0.682899  0.093092  0.000000
  0.653418  0.079310  0.000000
  0.669776  0.111086  0.000000
  0.667315  0.055163  0.000000
  0.650486  0.075346  0.000000
  0.642313  0.035721  0.000000
  0.647314  0.091810  0.000000
  0.622140  0.040220  0.000000
  0.609047  0.026758  0.000000
  0.614629  0.067532  0.000000
  0.575007  0.037837  0.000000
  0.596815  0.038180  0.000000
  0.553633  0.028076  0.000000
  0.521241  0.033341  0.000000
  0.502923  0.028166  0.000000
  0.496519  0.057531  0.000000
  0.438443  0.065024  0.000000
  0.435246  0.048393  0.000000
  0.430986  0.064332  0.000000
  0.388654  0.047980  0.000000
  0.384965  0.061847  0.000000
  0.355458  0.064624  0.000000
  0.343637  0.064252  0.000000
  0.686594  0.069185  0.000000
  0.666321  0.183753  0.000000
  0.662222  0.143112  0.000000
  0.680004  0.142788  0.000000
  0.684846  0.181412  0.000000
  0.690306  0.061196  0.000000
  0.679689  0.013732  0.000000
  0.651290  0.149101  0.000000
  0.671403  0.129899  0.000000
  0.681016  0.062105  0.000000
  0.681442  0.127648  0.000000
  0.666692  0.025265  0.000000
  0.691321  0.019704  0.000000
  0.672375  0.059176  0.000000
  0.636544  0.026072  0.000000
  0.660814  0.079356  0.000000
  0.638771  0.046382  0.000000
  0.614532  0.033338  0.000000
  0.621964  0.049797  0.000000
  0.598820  0.023622  0.000000
  0.599484  0.029494  0.000000
  0.543520  0.042065  0.000000
  0.522726  0.070946  0.000000
  0.503597  0.040770  0.000000
  0.488569  0.039256  0.000000
  0.506337  0.053143  0.000000
  0.442123  0.030212  0.000000
  0.429424  0.045988  0.000000
  0.394105  0.040068  0.000000
  0.388139  0.060167  0.000000
  0.683005  0.111058  0.000000
  0.687739  0.029329  0.000000
  0.685113  0.202589  0.000000
  0.685650  0.302198  0.000000
  0.688117  0.049584  0.000000
  0.687341  0.010178  0.000000
  0.663385  0.211901  0.000000
  0.684949  0.221663  0.000000
  0.689293  0.040529  0.000000
  0.690653  0.109388  0.000000
  0.686394  0.172730  0.000000
  0.680756  0.102058  0.000000
  0.687188  0.152116  0.000000
  0.647100  0.184501  0.000000
  0.648306  0.174109  0.000000
  0.668884  0.131373  0.000000
  0.642889  0.127281  0.000000
  0.660065  0.019150  0.000000
  0.655177  0.057149  0.000000
  0.643726  0.065097  0.000000
  0.651141  0.041360  0.000000
  0.611477  0.041002  0.000000
  0.591233  0.051750  0.000000
  0.605450  0.050389  0.000000
  0.535132  0.050335  0.000000
  0.525141  0.047194  0.000000
  0.504580  0.035648  0.000000
  0.452504  0.061421  0.000000
  0.439636  0.060082  0.000000
  0.400520  0.055996  0.000000
  0.663473  0.281373  0.000000
  0.609904  0.325844  0.000000
  0.676537  0.161991  0.000000
  0.639253  0.242300  0.000000
  0.577144  0.381952  0.000000
  0.657730  0.244722  0.000000
  0.681932  0.234827  0.000000
  0.691576  0.252074  0.000000
  0.656569  0.317788  0.000000
  0.655743  0.227619  0.000000
  0.685139  0.119754  0.000000
  0.681635  0.184767  0.000000
  0.670005  0.189899  0.000000
  0.626201  0.164294  0.000000
  0.671775  0.180312  0.000000
  0.681549  0.166225  0.000000
  0.670087  0.138527  0.000000
  0.690112  0.129031  0.000000
  0.674947  0.160908  0.000000
  0.668452  0.094720  0.000000
  0.663684  0.112090  0.000000
  0.636298  0.082226  0.000000
  0.632262  0.039071  0.000000
  0.648102  0.057678  0.000000
  0.582013  0.041274  0.000000
  0.557038  0.060129  0.000000
  0.539824  0.028167  0.000000
  0.527028  0.044035  0.000000
  0.470422  0.048445  0.000000
  0.414875  0.058621  0.000000
  0.653630  0.233466  0.000000
  0.536569  0.462634  0.000000
  0.663551  0.277142  0.000000
  0.685455  0.198930  0.000000
  0.660407  0.314749  0.000000
  0.689918  0.152350  0.000000
  0.688237  0.093109  0.000000
  0.674747  0.268789  0.000000
  0.663114  0.300208  0.000000
  0.683931  0.339159  0.000000
  0.583654  0.269373  0.000000
  0.642972  0.198818  0.000000
  0.598799  0.289046  0.000000
  0.641968  0.260789  0.000000
  0.683097  0.216933  0.000000
  0.665962  0.243232  0.000000
  0.671312  0.208397  0.000000
  0.650444  0.199503  0.000000
  0.672872  0.113602  0.000000
  0.681071  0.197962  0.000000
  0.663018  0.211618  0.000000
  0.637054  0.138303  0.000000
  0.655241  0.101472  0.000000
  0.671067  0.069049  0.000000
  0.645284  0.083744  0.000000
  0.636628  0.050116  0.000000
  0.603784  0.045993  0.000000
  0.567663  0.032146  0.000000
  0.513184  0.049863  0.000000
  0.482731  0.050106  0.000000
  0.548351  0.466607  0.000000
  0.629310  0.437930  0.000000
  0.675644  0.265484  0.000000
  0.676103  0.491112  0.000000
  0.515932  0.459556  0.000000
  0.616858  0.316738  0.000000
  0.629630  0.450548  0.000000
  0.633261  0.425651  0.000000
  0.657948  0.392091  0.000000
  0.659440  0.401754  0.000000
  0.624270  0.268451  0.000000
  0.672114  0.268267  0.000000
  0.638529  0.312905  0.000000
  0.681590  0.251096  0.000000
  0.683345  0.288883  0.000000
  0.629885  0.184188  0.000000
  0.640466  0.215492  0.000000
  0.629055  0.192161  0.000000
  0.682997  0.083496  0.000000
  0.662642  0.160774  0.000000
  0.653787  0.114323  0.000000
  0.654139  0.123712  0.000000
  0.661122  0.061093  0.000000
  0.636009  0.062342  0.000000
  0.621088  0.053202  0.000000
  0.557437  0.035593  0.000000
  0.554443  0.044106  0.000000
  0.553442  0.445008  0.000000
  0.599812  0.489958  0.000000
  0.664490  0.462901  0.000000
  0.491385  0.452887  0.000000
  0.659967  0.413663  0.000000
  0.666865  0.450934  0.000000
  0.665667  0.400298  0.000000
  0.633233  0.290243  0.000000
  0.676990  0.355676  0.000000
  0.618505  0.306801  0.000000
  0.615256  0.278682  0.000000
  0.648296  0.295110  0.000000
  0.651469  0.263317  0.000000
  0.641191  0.253978  0.000000
  0.642203  0.221422  0.000000
  0.655047  0.159186  0.000000
  0.647243  0.140563  0.000000
  0.637975  0.147943  0.000000
  0.650192  0.102219  0.000000
  0.627889  0.059314  0.000000
  0.637574  0.071094  0.000000
  0.559115  0.047757  0.000000
 -0.010000  0.500000  0.000000
 -0.010000  0.490000  0.000000
 -0.010000  0.480000  0.000000
 -0.010000  0.470000  0.000000
 -0.010000  0.460000  0.000000
 -0.010000  0.450000  0.000000
 -0.010000  0.440000  0.000000
 -0.010000  0.430000  0.000000
 -0.010000  0.420000  0.000000
 -0.010000  0.410000  0.000000
 -0.010000  0.400000  0.000000
 -0.010000  0.390000  0.000000
 -0.010000  0.380000  0.000000
 -0.010000  0.370000  0.000000
 -0.010000  0.360000  0.000000
 -0.010000  0.350000  0.000000
 -0.010000  0.340000  0.000000
 -0.010000  0.330000  0.000000
 -0.010000  0.320000  0.000000
 -0.010000  0.310000  0.000000
 -0.010000  0.300000  0.000000
 -0.010000  0.290000  0.000000
 -0.010000  0.280000  0.000000
 -0.010000  0.270000  0.000000
 -0.010000  0.260000  0.000000
 -0.010000  0.250000  0.000000
 -0.010000  0.240000  0.000000
 -0.010000  0.230000  0.000000
 -0.010000  0.220000  0.000000
 -0.010000  0.210000  0.000000
 -0.010000  0.200000  0.000000
 -0.010000  0.190000  0.000000
 -0.010000  0.180000  0.000000
 -0.010000  0.170000  0.000000
 -0.010000  0.160000  0.000000
 -0.010000  0.150000  0.000000
 -0.010000  0.140000  0.000000
 -0.010000  0.130000  0.000000
 -0.010000  0.120000  0.000000
 -0.010000  0.110000  0.000000
 -0.010000  0.100000  0.000000
 -0.010000  0.090000  0.000000
 -0.010000  0.080000  0.000000
 -0.010000  0.070000  0.000000
 -0.010000  0.060000  0.000000
 -0.010000  0.050000  0.000000
 -0.010000  0.040000  0.000000
 -0.010000  0.030000  0.000000
 -0.010000  0.020000  0.000000
 -0.010000  0.010000  0.000000
 -0.100000 -0.010000  0.000000
 -0.090000 -0.010000  0.000000
 -0.080000 -0.010000  0.000000
 -0.070000 -0.010000  0.000000
 -0.060000 -0.010000  0.000000
 -0.050000 -0.010000  0.000000
 -0.040000 -0.010000  0.000000
 -0.030000 -0.010000  0.000000
 -0.020000 -0.010000  0.000000
 -0.010000 -0.010000  0.000000
 -0.000000 -0.010000  0.000000
  0.010000 -0.010000  0.000000
  0.020000 -0.010000  0.000000
  0.030000 -0.010000  0.000000
  0.040000 -0.010000  0.000000
  0.050000 -0.010000  0.000000
  0.060000 -0.010000  0.000000
  0.070000 -0.010000  0.000000
  0.080000 -0.010000  0.000000
  0.090000 -0.010000  0.000000