<?xml version="1.0" encoding="UTF-8"?>
<VTKFile type="UnstructuredGrid" version="1.0" byte_order="LittleEndian">
<UnstructuredGrid>
  <Piece NumberOfPoints="1555" NumberOfCells="1555">
      <PointData>
        <DataArray type="Int32" Name="Type" format="ascii">
 1 1 1 1 1 1 1 1 1 1
 1 1 1 1 1 1 1 1 1 1
 1 1 1 1 1 1 1 1 1 1
 1 1 1 1 1 1 1 1 1 1
 1 1 1 1 1 1 1 1 1 1
 1 1 1 1 1 1 1 1 1 1
 1 3 3 3 3 3 3 3 3 3
 3 3 3 3 3 3 3 3 3 3
 3 3 3 3 3 3 3 3 3 3
 3 3 3 3 3 3 3 3 3 3
 3 3 3 3 3 3 3 3 3 3
 3 3 3 3 3 3 3 3 3 3
 3 3 3 3 3 3 3 3 3 3
 1 1 1 1 1 1 1 1 1 1
 1 1 1 1 1 1 1 1 1 1
 1 1 1 1 1 1 1 1 1 1
 1 1 1 1 1 1 1 1 1 1
 1 1 1 1 1 1 1 1 1 1
 1 1 1 1 1 1 1 1 1 1
 1 2 2 2 2 2 2 2 2 2
 2 2 2 2 2 2 2 2 2 2
 2 2 2 2 2 2 2 2 2 2
 2 2 2 2 2 2 2 2 2 2
 2 2 2 2 2 2 2 2 2 2
 2 2 2 2 2 2 2 2 2 2
 2 2 2 2 2 2 2 2 2 2
 2 2 2 2 2 2 2 2 2 2
 2 2 2 2 2 2 2 2 2 2
 2 2 2 2 2 2 2 2 2 2
 2 2 2 2 2 2 2 2 2 2
 2 2 2 2 2 2 2 2 2 2
 2 2 2 2 2 2 2 2 2 2
 2 2 2 2 2 2 2 2 2 2
 2 2 2 2 2 2 2 2 2 2
 2 2 2 2 2 2 2 2 2 2
 2 2 2 2 2 2 2 2 2 2
 2 2 2 2 2 2 2 2 2 2
 2 2 2 2 2 2 2 2 2 2
 2 2 2 2 2 2 2 2 2 2
 2 2 2 2 2 2 2 2 2 2
 2 2 2 2 2 2 2 2 2 2
 2 2 2 2 2 2 2 2 2 2
 2 2 2 2 2 2 2 2 2 2
 2 2 2 2 2 2 2 2 2 2
 2 2 2 2 2 2 2 2 2 2
 2 2 2 2 2 2 2 2 2 2
 2 2 2 2 2 2 2 2 2 2
 2 2 2 2 2 2 2 2 2 2
 2 2 2 2 2 2 2 2 2 2
 2 2 2 2 2 2 2 2 2 2
 2 2 2 2 2 2 2 2 2 2
 2 2 2 2 2 2 2 2 2 2
 2 2 2 2 2 2 2 2 2 2
 2 2 2 2 2 2 2 2 2 2
 2 2 2 2 2 2 2 2 2 2
 2 2 2 2 2 2 2 2 2 2
 2 2 2 2 2 2 2 2 2 2
 2 2 2 2 2 2 2 2 2 2
 2 2 2 2 2 2 2 2 2 2
 2 2 2 2 2 2 2 2 2 2
 2 2 2 2 2 2 2 2 2 2
 2 2 2 2 2 2 2 2 2 2
 2 2 2 2 2 2 2 2 2 2
 2 2 2 2 2 2 2 2 2 2
 2 2 2 2 2 2 2 2 2 2
 2 2 2 2 2 2 2 2 2 2
 2 2 2 2 2 2 2 2 2 2
 2 2 2 2 2 2 2 2 2 2
 2 2 2 2 2 2 2 2 2 2
 2 2 2 2 2 2 2 2 2 2
 2 2 2 2 2 2 2 2 2 2
 2 2 2 2 2 2 2 2 2 2
 2 2 2 2 2 2 2 2 2 2
 2 2 2 2 2 2 2 2 2 2
 2 2 2 2 2 2 2 2 2 2
 2 2 2 2 2 2 2 2 2 2
 2 2 2 2 2 2 2 2 2 2
 2 2 2 2 2 2 2 2 2 2
 2 2 2 2 2 2 2 2 2 2
 2 0 0 0 0 0 0 0 0 0
 0 0 0 0 0 0 0 0 0 0
 0 0 0 0 0 0 0 0 0 0
 0 0 0 0 0 0 0 0 0 0
 0 0 0 0 0 0 0 0 0 0
 0 0 0 0 0 0 0 0 0 0
 0 0 0 0 0 0 0 0 0 0
 0 0 0 0 0 0 0 0 0 0
 0 0 0 0 0 0 0 0 0 0
 0 0 0 0 0 0 0 0 0 0
 0 0 0 0 0 0 0 0 0 0
 0 0 0 0 0 0 0 0 0 0
 0 0 0 0 0 0 0 0 0 0
 0 0 0 0 0 0 0 0 0 0
 0 0 0 0 0 0 0 0 0 0
 0 0 0 0 0 0 0 0 0 0
 0 0 0 0 0 0 0 0 0 0
 0 0 0 0 0 0 0 0 0 0
 0 0 0 0 0 0 0 0 0 0
 0 0 0 0 0 0 0 0 0 0
 0 0 0 0 0 0 0 0 0 0
 0 0 0 0 0 0 0 0 0 0
 0 0 0 0 0 0 0 0 0 0
 0 0 0 0 0 0 0 0 0 0
 0 0 0 0 0 0 0 0 0 0
 0 0 0 0 0 0 0 0 0 0
 0 0 0 0 0 0 0 0 0 0
 0 0 0 0 0 0 0 0 0 0
 0 0 0 0 0 0 0 0 0 0
 0 0 0 0 0 0 0 0 0 0
 0 0 0 0 0 0 0 0 0 0
 0 0 0 0 0 0 0 0 0 0
 0 0 0 0 0 0 0 0 0 0
 0 0 0 0 0 0 0 0 0 0
 0 0 0 0 0 0 0 0 0 0
 0 0 0 0 0 0 0 0 0 0
 0 0 0 0 0 0 0 0 0 0
 0 0 0 0 0 0 0 0 0 0
 0 0 0 0 0 0 0 0 0 0
 0 0 0 0 0 0 0 0 0 0
 0 0 0 0 0 0 0 0 0 0
 0 0 0 0 0 0 0 0 0 0
 0 0 0 0 0 0 0 0 0 0
 0 0 0 0 0 0 0 0 0 0
 0 0 0 0 0 0 0 0 0 0
 0 0 0 0 0 0 0 0 0 0
 0 0 0 0 0 0 0 0 0 0
 0 0 0 0 0 0 0 0 0 0
 0 0 0 0 0 0 0 0 0 0
 0 0 0 0 0 0 0 0 0 0
 0 0 0 0 0 0 0 0 0 0
 0 0 0 0 0 0 0 0 0 0
 0 0 0 0 0 0 0 0 0 0
 0 0 0 0 0 0 0 0 0 0
 0 0 0 0 0 0 0 0 0 0
 0 0 0 0 0 0 0 0 0 0
 0 0 0 0 0 0 0 0 0 0
 0 0 0 0 0 0 0 0 0 0
 0 0 0 0 0 0 0 0 0 0
 0 0 0 0 0 0 0 0 0 0
 0 0 0 0 0 0 0 0 0 0
 0 0 0 0 0 0 0 0 0 0
 0 0 0 0 0 0 0 0 0 0
 0 0 0 0 0 0 0 0 0 0
 0 0 0 0 0 0 0 0 0 0
 0 0 0 0 0 0 0 0 0 0
 0 0 0 0 0 0 0 0 0 0
 0 0 0 0 0 0 0 0 0 0
 0 0 0 0 0 0 0 0 0 0
 0 0 0 0 0 0 0 0 0 0
 0 0 0 0 0 0 0 0 0 0
 0 0 0 0 0 0 0 0 0 0
 0 0 0 0 0 0 0 0 0 0
 0 0 0 0 0 0 0 0 0 0
 0 0 0 0 0 0 0 0 0 0
 0 0 0 0 0 0 0 0 0 0
 0 0 0 0 0
        </DataArray>
      </PointData>
      <Points>
        <DataArray type="Float32" NumberOfComponents="3" format="ascii">
  0.000000  0.500000  0.000000
  0.000000  0.490000  0.000000
  0.000000  0.480000  0.000000
  0.000000  0.470000  0.000000
  0.000000  0.460000  0.000000
  0.000000  0.450000  0.000000
  0.000000  0.440000  0.000000
  0.000000  0.430000  0.000000
  0.000000  0.420000  0.000000
  0.000000  0.410000  0.000000
  0.000000  0.400000  0.000000
  0.000000  0.390000  0.000000
  0.000000  0.380000  0.000000
  0.000000  0.370000  0.000000
  0.000000  0.360000  0.000000
  0.000000  0.350000  0.000000
  0.000000  0.340000  0.000000
  0.000000  0.330000  0.000000
  0.000000  0.320000  0.000000
  0.000000  0.310000  0.000000
  0.000000  0.300000  0.000000
  0.000000  0.290000  0.000000
  0.000000  0.280000  0.000000
  0.000000  0.270000  0.000000
  0.000000  0.260000  0.000000
  0.000000  0.250000  0.000000
  0.000000  0.240000  0.000000
  0.000000  0.230000  0.000000
  0.000000  0.220000  0.000000
  0.000000  0.210000  0.000000
  0.000000  0.200000  0.000000
  0.000000  0.190000  0.000000
  0.000000  0.180000  0.000000
  0.000000  0.170000  0.000000
  0.000000  0.160000  0.000000
  0.000000  0.150000  0.000000
  0.000000  0.140000  0.000000
  0.000000  0.130000  0.000000
  0.000000  0.120000  0.000000
  0.000000  0.110000  0.000000
  0.000000  0.100000  0.000000
  0.000000  0.090000  0.000000
  0.000000  0.080000  0.000000
  0.000000  0.070000  0.000000
  0.000000  0.060000  0.000000
  0.000000  0.050000  0.000000
  0.000000  0.040000  0.000000
  0.000000  0.030000  0.000000
  0.000000  0.020000  0.000000
  0.000000  0.010000  0.000000
 -0.100000  0.000000  0.000000
 -0.090000  0.000000  0.000000
 -0.080000  0.000000  0.000000
 -0.070000  0.000000  0.000000
 -0.060000  0.000000  0.000000
 -0.050000  0.000000  0.000000
 -0.040000  0.000000  0.000000
 -0.030000  0.000000  0.000000
 -0.020000  0.000000  0.000000
 -0.010000  0.000000  0.000000
 -0.000000  0.000000  0.000000
  0.010000  0.000000  0.000000
  0.020000  0.000000  0.000000
  0.030000  0.000000  0.000000
  0.040000  0.000000  0.000000
  0.050000  0.000000  0.000000
  0.060000  0.000000  0.000000
  0.070000  0.000000  0.000000
  0.080000  0.000000  0.000000
  0.090000  0.000000  0.000000
  0.100000  0.000000  0.000000
  0.110000  0.000000  0.000000
  0.120000  0.000000  0.000000
  0.130000  0.000000  0.000000
  0.140000  0.000000  0.000000
  0.150000  0.000000  0.000000
  0.160000  0.000000  0.000000
  0.170000  0.000000  0.000000
  0.180000  0.000000  0.000000
  0.190000  0.000000  0.000000
  0.200000  0.000000  0.000000
  0.210000  0.000000  0.000000
  0.220000  0.000000  0.000000
  0.230000  0.000000  0.000000
  0.240000  0.000000  0.000000
  0.250000  0.000000  0.000000
  0.260000  0.000000  0.000000
  0.270000  0.000000  0.000000
  0.280000  0.000000  0.000000
  0.290000  0.000000  0.000000
  0.300000  0.000000  0.000000
  0.310000  0.000000  0.000000
  0.320000  0.000000  0.000000
  0.330000  0.000000  0.000000
  0.340000  0.000000  0.000000
  0.350000  0.000000  0.000000
  0.360000  0.000000  0.000000
  0.370000  0.000000  0.000000
  0.380000  0.000000  0.000000
  0.390000  0.000000  0.000000
  0.400000  0.000000  0.000000
  0.410000  0.000000  0.000000
  0.420000  0.000000  0.000000
  0.430000  0.000000  0.000000
  0.440000  0.000000  0.000000
  0.450000  0.000000  0.000000
  0.460000  0.000000  0.000000
  0.470000  0.000000  0.000000
  0.480000  0.000000  0.000000
  0.490000  0.000000  0.000000
  0.500000  0.000000  0.000000
  0.510000  0.000000  0.000000
  0.520000  0.000000  0.000000
  0.530000  0.000000  0.000000
  0.540000  0.000000  0.000000
  0.550000  0.000000  0.000000
  0.560000  0.000000  0.000000
  0.570000  0.000000  0.000000
  0.580000  0.000000  0.000000
  0.590000  0.000000  0.000000
  0.600000  0.000000  0.000000
  0.610000  0.000000  0.000000
  0.620000  0.000000  0.000000
  0.630000  0.000000  0.000000
  0.640000  0.000000  0.000000
  0.650000  0.000000  0.000000
  0.660000  0.000000  0.000000
  0.670000  0.000000  0.000000
  0.680000  0.000000  0.000000
  0.690000  0.000000  0.000000
  0.700000  0.000000  0.000000
  0.710000  0.000000  0.000000
  0.720000  0.000000  0.000000
  0.730000  0.000000  0.000000
  0.740000  0.000000  0.000000
  0.750000  0.000000  0.000000
  0.760000  0.000000  0.000000
  0.770000  0.000000  0.000000
  0.780000  0.000000  0.000000
  0.790000  0.000000  0.000000
  0.800000  0.000000  0.000000
  0.700000  0.010000  0.000000
  0.700000  0.020000  0.000000
  0.700000  0.030000  0.000000
  0.700000  0.040000  0.000000
  0.700000  0.050000  0.000000
  0.700000  0.060000  0.000000
  0.700000  0.070000  0.000000
  0.700000  0.080000  0.000000
  0.700000  0.090000  0.000000
  0.700000  0.100000  0.000000
  0.700000  0.110000  0.000000
  0.700000  0.120000  0.000000
  0.700000  0.130000  0.000000
  0.700000  0.140000  0.000000
  0.700000  0.150000  0.000000
  0.700000  0.160000  0.000000
  0.700000  0.170000  0.000000
  0.700000  0.180000  0.000000
  0.700000  0.190000  0.000000
  0.700000  0.200000  0.000000
  0.700000  0.210000  0.000000
  0.700000  0.220000  0.000000
  0.700000  0.230000  0.000000
  0.700000  0.240000  0.000000
  0.700000  0.250000  0.000000
  0.700000  0.260000  0.000000
  0.700000  0.270000  0.000000
  0.700000  0.280000  0.000000
  0.700000  0.290000  0.000000
  0.700000  0.300000  0.000000
  0.700000  0.310000  0.000000
  0.700000  0.320000  0.000000
  0.700000  0.330000  0.000000
  0.700000  0.340000  0.000000
  0.700000  0.350000  0.000000
  0.700000  0.360000  0.000000
  0.700000  0.370000  0.000000
  0.700000  0.380000  0.000000
  0.700000  0.390000  0.000000
  0.700000  0.400000  0.000000
  0.700000  0.410000  0.000000
  0.700000  0.420000  0.000000
  0.700000  0.430000  0.000000
  0.700000  0.440000  0.000000
  0.700000  0.450000  0.000000
  0.700000  0.460000  0.000000
  0.700000  0.470000  0.000000
  0.700000  0.480000  0.000000
  0.700000  0.490000  0.000000
  0.700000  0.500000  0.000000
  0.018277  0.010394  0.000000
  0.021245  0.018790  0.000000
  0.035369  0.014104  0.000000
  0.009410  0.009778  0.000000
  0.025098  0.024278  0.000000
  0.009594  0.023246  0.000000
  0.033468  0.027825  0.000000
  0.041573  0.024275  0.000000
  0.054198  0.029120  0.000000
  0.035563  0.035772  0.000000
  0.043637  0.040634  0.000000
  0.010987  0.028544  0.000000
  0.008194  0.042608  0.000000
  0.012078  0.050426  0.000000
  0.007840  0.062236  0.000000
  0.020969  0.059810  0.000000
  0.034589  0.066270  0.000000
  0.014158  0.069500  0.000000
  0.024947  0.084136  0.000000
  0.009044  0.078750  0.000000
  0.015037  0.082932  0.000000
  0.009564  0.092770  0.000000
  0.010277  0.101727  0.000000
  0.014662  0.111618  0.000000
  0.009589  0.116678  0.000000
  0.020439  0.121794  0.000000
  0.009345  0.127835  0.000000
  0.020107  0.133398  0.000000
  0.012017  0.135450  0.000000
  0.027038  0.131462  0.000000
  0.043064  0.009304  0.000000
  0.029213  0.009620  0.000000
  0.053323  0.010544  0.000000
  0.047726  0.020298  0.000000
  0.065036  0.008785  0.000000
  0.066458  0.023182  0.000000
  0.081843  0.019003  0.000000
  0.058834  0.016732  0.000000
  0.056058  0.044847  0.000000
  0.050478  0.034155  0.000000
  0.040756  0.049543  0.000000
  0.020386  0.034441  0.000000
  0.054932  0.049585  0.000000
  0.029347  0.042910  0.000000
  0.052458  0.062155  0.000000
  0.019593  0.052636  0.000000
  0.019295  0.040009  0.000000
  0.032531  0.061144  0.000000
  0.045219  0.067657  0.000000
  0.021501  0.070157  0.000000
  0.045035  0.082552  0.000000
  0.034522  0.082958  0.000000
  0.021618  0.093291  0.000000
  0.035164  0.095193  0.000000
  0.020252  0.099240  0.000000
  0.034611  0.107493  0.000000
  0.023595  0.109186  0.000000
  0.031473  0.114896  0.000000
  0.030338  0.121528  0.000000
  0.038253  0.130532  0.000000
  0.095397  0.009951  0.000000
  0.076612  0.009573  0.000000
  0.086611  0.010632  0.000000
  0.071669  0.019381  0.000000
  0.095373  0.022648  0.000000
  0.111930  0.015294  0.000000
  0.126327  0.023015  0.000000
  0.097711  0.037179  0.000000
  0.084157  0.046863  0.000000
  0.064233  0.033215  0.000000
  0.079273  0.037773  0.000000
  0.086898  0.028445  0.000000
  0.065123  0.053196  0.000000
  0.065638  0.070262  0.000000
  0.079635  0.063263  0.000000
  0.032266  0.050821  0.000000
  0.060192  0.068316  0.000000
  0.046257  0.057006  0.000000
  0.044071  0.076296  0.000000
  0.029508  0.076180  0.000000
  0.057006  0.077825  0.000000
  0.055156  0.087459  0.000000
  0.049019  0.093600  0.000000
  0.037553  0.096610  0.000000
  0.053767  0.103471  0.000000
  0.044194  0.106951  0.000000
  0.048332  0.113778  0.000000
  0.051591  0.119371  0.000000
  0.048798  0.124541  0.000000
  0.043073  0.132952  0.000000
  0.130313  0.009253  0.000000
  0.107422  0.009216  0.000000
  0.129249  0.017532  0.000000
  0.098769  0.019354  0.000000
  0.125905  0.038729  0.000000
  0.119207  0.010377  0.000000
  0.124220  0.033455  0.000000
  0.115133  0.024055  0.000000
  0.107351  0.043203  0.000000
  0.079577  0.030049  0.000000
  0.115445  0.044887  0.000000
  0.072644  0.045711  0.000000
  0.103008  0.050761  0.000000
  0.066908  0.037981  0.000000
  0.067212  0.059048  0.000000
  0.093701  0.038627  0.000000
  0.078172  0.054587  0.000000
  0.088291  0.063496  0.000000
  0.078329  0.071509  0.000000
  0.072163  0.081338  0.000000
  0.088818  0.082873  0.000000
  0.064704  0.084470  0.000000
  0.058533  0.097586  0.000000
  0.075701  0.088665  0.000000
  0.069168  0.100167  0.000000
  0.064013  0.108533  0.000000
  0.069727  0.113200  0.000000
  0.064831  0.118854  0.000000
  0.061257  0.128995  0.000000
  0.066503  0.128720  0.000000
  0.157421  0.008606  0.000000
  0.142578  0.009068  0.000000
  0.157661  0.015899  0.000000
  0.144586  0.015392  0.000000
  0.172710  0.014900  0.000000
  0.140587  0.022687  0.000000
  0.136333  0.031123  0.000000
  0.149809  0.025687  0.000000
  0.106184  0.029175  0.000000
  0.146974  0.038534  0.000000
  0.112063  0.032453  0.000000
  0.139686  0.037184  0.000000
  0.127702  0.048140  0.000000
  0.118267  0.054969  0.000000
  0.127174  0.066529  0.000000
  0.091238  0.050090  0.000000
  0.110689  0.057470  0.000000
  0.096735  0.057353  0.000000
  0.106566  0.079513  0.000000
  0.096460  0.068090  0.000000
  0.083228  0.076593  0.000000
  0.096131  0.079076  0.000000
  0.091358  0.092444  0.000000
  0.075134  0.095492  0.000000
  0.089393  0.097203  0.000000
  0.081989  0.107261  0.000000
  0.081409  0.106605  0.000000
  0.083532  0.119535  0.000000
  0.080674  0.122487  0.000000
  0.076223  0.131113  0.000000
  0.184319  0.009038  0.000000
  0.170527  0.009337  0.000000
  0.199541  0.022508  0.000000
  0.180475  0.021709  0.000000
  0.221435  0.015132  0.000000
  0.185353  0.029086  0.000000
  0.204590  0.011641  0.000000
  0.161560  0.022347  0.000000
  0.171692  0.026336  0.000000
  0.192409  0.033754  0.000000
  0.169792  0.036964  0.000000
  0.177254  0.035366  0.000000
  0.159346  0.031089  0.000000
  0.142342  0.051056  0.000000
  0.128818  0.052958  0.000000
  0.135083  0.061311  0.000000
  0.113197  0.065914  0.000000
  0.143284  0.064244  0.000000
  0.103525  0.068446  0.000000
  0.123483  0.071020  0.000000
  0.115494  0.076010  0.000000
  0.117274  0.084995  0.000000
  0.101507  0.088448  0.000000
  0.110944  0.090944  0.000000
  0.107431  0.102026  0.000000
  0.099190  0.101500  0.000000
  0.100288  0.110253  0.000000
  0.099068  0.114534  0.000000
  0.092782  0.122599  0.000000
  0.096071  0.126259  0.000000
  0.235204  0.012669  0.000000
  0.194140  0.010713  0.000000
  0.212369  0.011404  0.000000
  0.189687  0.017512  0.000000
  0.259255  0.026817  0.000000
  0.226395  0.010546  0.000000
  0.237955  0.019915  0.000000
  0.212305  0.021231  0.000000
  0.204501  0.026113  0.000000
  0.210024  0.036358  0.000000
  0.197243  0.036378  0.000000
  0.202551  0.045991  0.000000
  0.179546  0.044337  0.000000
  0.155574  0.037559  0.000000
  0.161548  0.046373  0.000000
  0.145727  0.050347  0.000000
  0.153355  0.056746  0.000000
  0.161514  0.061904  0.000000
  0.143612  0.070791  0.000000
  0.134084  0.075835  0.000000
  0.148185  0.078328  0.000000
  0.132627  0.083811  0.000000
  0.126520  0.088694  0.000000
  0.131047  0.096034  0.000000
  0.117326  0.097806  0.000000
  0.124568  0.103203  0.000000
  0.118852  0.111109  0.000000
  0.115083  0.111666  0.000000
  0.112342  0.121228  0.000000
  0.106876  0.127144  0.000000
  0.251234  0.013067  0.000000
  0.245204  0.011633  0.000000
  0.295384  0.022767  0.000000
  0.259924  0.011459  0.000000
  0.302656  0.026245  0.000000
  0.271595  0.010877  0.000000
  0.277527  0.029181  0.000000
  0.250886  0.025547  0.000000
  0.265062  0.017161  0.000000
  0.243155  0.028044  0.000000
  0.228176  0.026002  0.000000
  0.221131  0.028356  0.000000
  0.220046  0.035981  0.000000
  0.187509  0.046983  0.000000
  0.195365  0.058730  0.000000
  0.173873  0.051988  0.000000
  0.162412  0.049930  0.000000
  0.183849  0.055272  0.000000
  0.168472  0.063397  0.000000
  0.177692  0.062157  0.000000
  0.159368  0.074727  0.000000
  0.157981  0.071150  0.000000
  0.158980  0.086058  0.000000
  0.142449  0.085987  0.000000
  0.149673  0.090201  0.000000
  0.142404  0.097750  0.000000
  0.139805  0.102488  0.000000
  0.134753  0.111169  0.000000
  0.131783  0.123356  0.000000
  0.130317  0.118034  0.000000
  0.303024  0.014004  0.000000
  0.287438  0.012773  0.000000
  0.310819  0.008985  0.000000
  0.293476  0.010665  0.000000
  0.326661  0.014110  0.000000
  0.310685  0.017806  0.000000
  0.314812  0.027402  0.000000
  0.283407  0.021751  0.000000
  0.277030  0.014298  0.000000
  0.279880  0.032052  0.000000
  0.251325  0.038642  0.000000
  0.251782  0.042830  0.000000
  0.239254  0.051036  0.000000
  0.233278  0.033890  0.000000
  0.231243  0.045811  0.000000
  0.197403  0.049414  0.000000
  0.213595  0.042644  0.000000
  0.214018  0.053382  0.000000
  0.206939  0.060795  0.000000
  0.195049  0.065957  0.000000
  0.189039  0.070407  0.000000
  0.178136  0.070799  0.000000
  0.177229  0.077721  0.000000
  0.170874  0.082032  0.000000
  0.171792  0.089140  0.000000
  0.161292  0.092811  0.000000
  0.159916  0.100656  0.000000
  0.152649  0.107202  0.000000
  0.147102  0.113632  0.000000
  0.142754  0.118588  0.000000
  0.370545  0.011149  0.000000
  0.326581  0.011974  0.000000
  0.379079  0.013211  0.000000
  0.346581  0.015459  0.000000
  0.385103  0.028560  0.000000
  0.351469  0.010847  0.000000
  0.382088  0.025921  0.000000
  0.328571  0.030212  0.000000
  0.307666  0.035180  0.000000
  0.293402  0.032345  0.000000
  0.292120  0.039366  0.000000
  0.283376  0.044881  0.000000
  0.239818  0.037618  0.000000
  0.264431  0.028880  0.000000
  0.269044  0.037629  0.000000
  0.261262  0.043548  0.000000
  0.237369  0.060112  0.000000
  0.229385  0.049255  0.000000
  0.228905  0.065231  0.000000
  0.218235  0.053982  0.000000
  0.222217  0.063636  0.000000
  0.205273  0.070823  0.000000
  0.211467  0.073943  0.000000
  0.191293  0.078681  0.000000
  0.193188  0.086474  0.000000
  0.183885  0.089219  0.000000
  0.179888  0.097923  0.000000
  0.175005  0.101109  0.000000
  0.164874  0.107870  0.000000
  0.163977  0.112374  0.000000
  0.410570  0.010524  0.000000
  0.374203  0.019941  0.000000
  0.435979  0.015263  0.000000
  0.396965  0.012857  0.000000
  0.429952  0.010414  0.000000
  0.387860  0.010136  0.000000
  0.406474  0.015316  0.000000
  0.393302  0.018157  0.000000
  0.362596  0.029041  0.000000
  0.345372  0.031460  0.000000
  0.360249  0.012998  0.000000
  0.322158  0.023069  0.000000
  0.318302  0.037346  0.000000
  0.321044  0.051652  0.000000
  0.311373  0.044069  0.000000
  0.282346  0.051120  0.000000
  0.271928  0.045443  0.000000
  0.264775  0.054101  0.000000
  0.264690  0.060975  0.000000
  0.251353  0.055303  0.000000
  0.246973  0.067270  0.000000
  0.236897  0.071902  0.000000
  0.221497  0.072462  0.000000
  0.223449  0.082498  0.000000
  0.201761  0.082270  0.000000
  0.209281  0.082402  0.000000
  0.197192  0.095642  0.000000
  0.187384  0.105612  0.000000
  0.188285  0.114815  0.000000
  0.178353  0.110842  0.000000
  0.492041  0.011245  0.000000
  0.458571  0.015019  0.000000
  0.498026  0.013357  0.000000
  0.472500  0.012347  0.000000
  0.484174  0.013100  0.000000
  0.451717  0.011751  0.000000
  0.446636  0.011721  0.000000
  0.420315  0.020515  0.000000
  0.419780  0.012714  0.000000
  0.404751  0.026901  0.000000
  0.398183  0.036855  0.000000
  0.362365  0.020278  0.000000
  0.351821  0.026875  0.000000
  0.343996  0.038899  0.000000
  0.333070  0.032162  0.000000
  0.325404  0.043649  0.000000
  0.315577  0.054176  0.000000
  0.301170  0.042966  0.000000
  0.305952  0.058180  0.000000
  0.294585  0.050776  0.000000
  0.274976  0.056819  0.000000
  0.283092  0.065925  0.000000
  0.249636  0.056966  0.000000
  0.257347  0.073074  0.000000
  0.240583  0.077533  0.000000
  0.228424  0.082123  0.000000
  0.218623  0.093187  0.000000
  0.213638  0.093020  0.000000
  0.202074  0.098411  0.000000
  0.195361  0.104984  0.000000
  0.592757  0.011033  0.000000
  0.549650  0.018056  0.000000
  0.550970  0.014526  0.000000
  0.527849  0.012233  0.000000
  0.541717  0.010854  0.000000
  0.511344  0.012858  0.000000
  0.482598  0.025963  0.000000
  0.487995  0.022224  0.000000
  0.470876  0.011948  0.000000
  0.448676  0.025512  0.000000
  0.431989  0.020885  0.000000
  0.415960  0.027902  0.000000
  0.402129  0.028887  0.000000
  0.411485  0.044909  0.000000
  0.368196  0.039631  0.000000
  0.370219  0.044375  0.000000
  0.358982  0.033758  0.000000
  0.338367  0.011273  0.000000
  0.338781  0.021728  0.000000
  0.357569  0.046107  0.000000
  0.336169  0.048298  0.000000
  0.316674  0.067065  0.000000
  0.297709  0.055320  0.000000
  0.272102  0.066426  0.000000
  0.264182  0.072709  0.000000
  0.253681  0.077761  0.000000
  0.241219  0.085683  0.000000
  0.236206  0.090274  0.000000
  0.228351  0.107739  0.000000
  0.213319  0.104497  0.000000
  0.629480  0.014509  0.000000
  0.597955  0.014375  0.000000
  0.610501  0.010389  0.000000
  0.584987  0.012319  0.000000
  0.603807  0.033076  0.000000
  0.565511  0.010848  0.000000
  0.534523  0.025634  0.000000
  0.542948  0.034046  0.000000
  0.500641  0.023994  0.000000
  0.531065  0.029274  0.000000
  0.506508  0.027484  0.000000
  0.475253  0.027582  0.000000
  0.455887  0.026748  0.000000
  0.467662  0.040613  0.000000
  0.438462  0.028009  0.000000
  0.421631  0.033068  0.000000
  0.426556  0.050197  0.000000
  0.391539  0.042533  0.000000
  0.393142  0.048348  0.000000
  0.380400  0.035619  0.000000
  0.360030  0.052776  0.000000
  0.340307  0.044306  0.000000
  0.337715  0.057183  0.000000
  0.309028  0.072108  0.000000
  0.298452  0.067465  0.000000
  0.284327  0.074261  0.000000
  0.269976  0.083148  0.000000
  0.261182  0.087519  0.000000
  0.244450  0.099180  0.000000
  0.237017  0.098558  0.000000
  0.662367  0.010725  0.000000
  0.656655  0.025061  0.000000
  0.662214  0.019216  0.000000
  0.645036  0.014512  0.000000
  0.627521  0.031576  0.000000
  0.619084  0.011937  0.000000
  0.575906  0.012752  0.000000
  0.589803  0.038757  0.000000
  0.549871  0.027204  0.000000
  0.563906  0.014690  0.000000
  0.555415  0.032160  0.000000
  0.518062  0.011378  0.000000
  0.534198  0.013293  0.000000
  0.524374  0.023101  0.000000
  0.464800  0.021821  0.000000
  0.483606  0.037942  0.000000
  0.473628  0.034364  0.000000
  0.439770  0.032501  0.000000
  0.439950  0.046593  0.000000
  0.421927  0.037302  0.000000
  0.405770  0.042492  0.000000
  0.379049  0.043570  0.000000
  0.366859  0.061343  0.000000
  0.351377  0.056583  0.000000
  0.327193  0.061240  0.000000
  0.322329  0.070126  0.000000
  0.292462  0.067354  0.000000
  0.281367  0.075649  0.000000
  0.271591  0.094806  0.000000
  0.255794  0.089834  0.000000
  0.674846  0.018826  0.000000
  0.670193  0.012325  0.000000
  0.672410  0.032432  0.000000
  0.670440  0.069129  0.000000
  0.651147  0.010801  0.000000
  0.636787  0.010610  0.000000
  0.651862  0.031148  0.000000
  0.635612  0.034119  0.000000
  0.608818  0.018385  0.000000
  0.624498  0.017677  0.000000
  0.617389  0.029343  0.000000
  0.594429  0.030591  0.000000
  0.574459  0.028440  0.000000
  0.597124  0.023241  0.000000
  0.561570  0.036576  0.000000
  0.533541  0.042913  0.000000
  0.516474  0.041895  0.000000
  0.510559  0.018806  0.000000
  0.497620  0.034232  0.000000
  0.472376  0.050668  0.000000
  0.458043  0.034796  0.000000
  0.434170  0.040579  0.000000
  0.408041  0.053975  0.000000
  0.401715  0.063548  0.000000
  0.383033  0.053553  0.000000
  0.355958  0.063392  0.000000
  0.336554  0.061652  0.000000
  0.314669  0.083015  0.000000
  0.302703  0.081965  0.000000
  0.274614  0.085858  0.000000
  0.683766  0.050704  0.000000
  0.683171  0.089951  0.000000
  0.683828  0.021817  0.000000
  0.683505  0.037641  0.000000
  0.654794  0.113576  0.000000
  0.667176  0.030391  0.000000
  0.675441  0.049660  0.000000
  0.665196  0.052773  0.000000
  0.668624  0.095852  0.000000
  0.662832  0.049584  0.000000
  0.642626  0.021795  0.000000
  0.637042  0.028369  0.000000
  0.630763  0.045359  0.000000
  0.620691  0.039013  0.000000
  0.610975  0.027075  0.000000
  0.608923  0.041857  0.000000
  0.571376  0.035921  0.000000
  0.563946  0.025463  0.000000
  0.540375  0.040538  0.000000
  0.518848  0.034781  0.000000
  0.488306  0.045647  0.000000
  0.481524  0.045565  0.000000
  0.455762  0.040844  0.000000
  0.450072  0.062673  0.000000
  0.408725  0.060894  0.000000
  0.390804  0.057832  0.000000
  0.376695  0.062497  0.000000
  0.348776  0.069285  0.000000
  0.322806  0.077563  0.000000
  0.302335  0.078682  0.000000
  0.688875  0.039240  0.000000
  0.666734  0.165140  0.000000
  0.685602  0.073187  0.000000
  0.689666  0.025137  0.000000
  0.689393  0.066011  0.000000
  0.689831  0.013005  0.000000
  0.682932  0.011462  0.000000
  0.684405  0.065629  0.000000
  0.662512  0.072127  0.000000
  0.668910  0.100402  0.000000
  0.675218  0.076157  0.000000
  0.673393  0.037543  0.000000
  0.672717  0.060118  0.000000
  0.669853  0.086200  0.000000
  0.649122  0.035625  0.000000
  0.644914  0.045076  0.000000
  0.627772  0.048745  0.000000
  0.606283  0.051350  0.000000
  0.585278  0.030027  0.000000
  0.576395  0.041876  0.000000
  0.556475  0.046036  0.000000
  0.545441  0.060202  0.000000
  0.502907  0.049668  0.000000
  0.501373  0.037894  0.000000
  0.462123  0.051242  0.000000
  0.447386  0.043198  0.000000
  0.419251  0.061073  0.000000
  0.388650  0.064016  0.000000
  0.345626  0.074198  0.000000
  0.338020  0.073749  0.000000
  0.656312  0.153236  0.000000
  0.690839  0.118106  0.000000
  0.688898  0.049964  0.000000
  0.637801  0.235093  0.000000
  0.677240  0.220554  0.000000
  0.651426  0.183566  0.000000
  0.678659  0.207415  0.000000
  0.687042  0.105887  0.000000
  0.685557  0.122456  0.000000
  0.686730  0.145236  0.000000
  0.671830  0.100259  0.000000
  0.691494  0.087938  0.000000
  0.685015  0.104192  0.000000
  0.661271  0.113149  0.000000
  0.655976  0.043237  0.000000
  0.681614  0.084061  0.000000
  0.652821  0.054816  0.000000
  0.649953  0.084595  0.000000
  0.630928  0.066435  0.000000
  0.626894  0.055218  0.000000
  0.591937  0.055154  0.000000
  0.577045  0.019690  0.000000
  0.587886  0.047159  0.000000
  0.517885  0.053643  0.000000
  0.511959  0.051084  0.000000
  0.498064  0.047850  0.000000
  0.457866  0.054310  0.000000
  0.421814  0.048722  0.000000
  0.381781  0.072699  0.000000
  0.373207  0.069263  0.000000
  0.600049  0.282249  0.000000
  0.673959  0.140330  0.000000
  0.589491  0.253930  0.000000
  0.688995  0.456875  0.000000
  0.583511  0.281640  0.000000
  0.641008  0.254577  0.000000
  0.662693  0.178580  0.000000
  0.686396  0.184941  0.000000
  0.684973  0.236142  0.000000
  0.677626  0.179935  0.000000
  0.674022  0.242156  0.000000
  0.681667  0.159865  0.000000
  0.666096  0.159219  0.000000
  0.685235  0.157983  0.000000
  0.686005  0.136316  0.000000
  0.666286  0.121107  0.000000
  0.680429  0.120643  0.000000
  0.657502  0.072436  0.000000
  0.643790  0.065520  0.000000
  0.653107  0.061399  0.000000
  0.641693  0.054157  0.000000
  0.614356  0.046212  0.000000
  0.598276  0.046948  0.000000
  0.577234  0.047675  0.000000
  0.550687  0.049221  0.000000
  0.532107  0.048689  0.000000
  0.482267  0.058298  0.000000
  0.443174  0.056236  0.000000
  0.434253  0.055603  0.000000
  0.400438  0.071013  0.000000
 -0.010000  0.500000  0.000000
 -0.010000  0.490000  0.000000
 -0.010000  0.480000  0.000000
 -0.010000  0.470000  0.000000
 -0.010000  0.460000  0.000000
 -0.010000  0.450000  0.000000
 -0.010000  0.440000  0.000000
 -0.010000  0.430000  0.000000
 -0.010000  0.420000  0.000000
 -0.010000  0.410000  0.000000
 -0.010000  0.400000  0.000000
 -0.010000  0.390000  0.000000
 -0.010000  0.380000  0.000000
 -0.010000  0.370000  0.000000
 -0.010000  0.360000  0.000000
 -0.010000  0.350000  0.000000
 -0.010000  0.340000  0.000000
 -0.010000  0.330000  0.000000
 -0.010000  0.320000  0.000000
 -0.010000  0.310000  0.000000
 -0.010000  0.300000  0.000000
 -0.010000  0.290000  0.000000
 -0.010000  0.280000  0.000000
 -0.010000  0.270000  0.000000
 -0.010000  0.260000  0.000000
 -0.010000  0.250000  0.000000
 -0.010000  0.240000  0.000000
 -0.010000  0.230000  0.000000
 -0.010000  0.220000  0.000000
 -0.010000  0.210000  0.000000
 -0.010000  0.200000  0.000000
 -0.010000  0.190000  0.000000
 -0.010000  0.180000  0.000000
 -0.010000  0.170000  0.000000
 -0.010000  0.160000  0.000000
 -0.010000  0.150000  0.000000
 -0.010000  0.140000  0.000000
 -0.010000  0.130000  0.000000
 -0.010000  0.120000  0.000000
 -0.010000  0.110000  0.000000
 -0.010000  0.100000  0.000000
 -0.010000  0.090000  0.000000
 -0.010000  0.080000  0.000000
 -0.010000  0.070000  0.000000
 -0.010000  0.060000  0.000000
 -0.010000  0.050000  0.000000
 -0.010000  0.040000  0.000000
 -0.010000  0.030000  0.000000
 -0.010000  0.020000  0.000000
 -0.010000  0.010000  0.000000
 -0.100000 -0.010000  0.000000
 -0.090000 -0.010000  0.000000
 -0.080000 -0.010000  0.000000
 -0.070000 -0.010000  0.000000
 -0.060000 -0.010000  0.000000
 -0.050000 -0.010000  0.000000
 -0.040000 -0.010000  0.000000
 -0.030000 -0.010000  0.000000