<?xml version="1.0" encoding="UTF-8"?>
<VTKFile type="UnstructuredGrid" version="1.0" byte_order="LittleEndian">
<UnstructuredGrid>
  <Piece NumberOfPoints="1555" NumberOfCells="1555">
      <PointData>
        <DataArray type="Int32" Name="Type" format="ascii">
 1 1 1 1 1 1 1 1 1 1
 1 1 1 1 1 1 1 1 1 1
 1 1 1 1 1 1 1 1 1 1
 1 1 1 1 1 1 1 1 1 1
 1 1 1 1 1 1 1 1 1 1
 1 1 1 1 1 1 1 1 1 1
 1 3 3 3 3 3 3 3 3 3
 3 3 3 3 3 3 3 3 3 3
 3 3 3 3 3 3 3 3 3 3
 3 3 3 3 3 3 3 3 3 3
 3 3 3 3 3 3 3 3 3 3
 3 3 3 3 3 3 3 3 3 3
 3 3 3 3 3 3 3 3 3 3
 1 1 1 1 1 1 1 1 1 1
 1 1 1 1 1 1 1 1 1 1
 1 1 1 1 1 1 1 1 1 1
 1 1 1 1 1 1 1 1 1 1
 1 1 1 1 1 1 1 1 1 1
 1 1 1 1 1 1 1 1 1 1
 1 2 2 2 2 2 2 2 2 2
 2 2 2 2 2 2 2 2 2 2
 2 2 2 2 2 2 2 2 2 2
 2 2 2 2 2 2 2 2 2 2
 2 2 2 2 2 2 2 2 2 2
 2 2 2 2 2 2 2 2 2 2
 2 2 2 2 2 2 2 2 2 2
 2 2 2 2 2 2 2 2 2 2
 2 2 2 2 2 2 2 2 2 2
 2 2 2 2 2 2 2 2 2 2
 2 2 2 2 2 2 2 2 2 2
 2 2 2 2 2 2 2 2 2 2
 2 2 2 2 2 2 2 2 2 2
 2 2 2 2 2 2 2 2 2 2
 2 2 2 2 2 2 2 2 2 2
 2 2 2 2 2 2 2 2 2 2
 2 2 2 2 2 2 2 2 2 2
 2 2 2 2 2 2 2 2 2 2
 2 2 2 2 2 2 2 2 2 2
 2 2 2 2 2 2 2 2 2 2
 2 2 2 2 2 2 2 2 2 2
 2 2 2 2 2 2 2 2 2 2
 2 2 2 2 2 2 2 2 2 2
 2 2 2 2 2 2 2 2 2 2
 2 2 2 2 2 2 2 2 2 2
 2 2 2 2 2 2 2 2 2 2
 2 2 2 2 2 2 2 2 2 2
 2 2 2 2 2 2 2 2 2 2
 2 2 2 2 2 2 2 2 2 2
 2 2 2 2 2 2 2 2 2 2
 2 2 2 2 2 2 2 2 2 2
 2 2 2 2 2 2 2 2 2 2
 2 2 2 2 2 2 2 2 2 2
 2 2 2 2 2 2 2 2 2 2
 2 2 2 2 2 2 2 2 2 2
 2 2 2 2 2 2 2 2 2 2
 2 2 2 2 2 2 2 2 2 2
 2 2 2 2 2 2 2 2 2 2
 2 2 2 2 2 2 2 2 2 2
 2 2 2 2 2 2 2 2 2 2
 2 2 2 2 2 2 2 2 2 2
 2 2 2 2 2 2 2 2 2 2
 2 2 2 2 2 2 2 2 2 2
 2 2 2 2 2 2 2 2 2 2
 2 2 2 2 2 2 2 2 2 2
 2 2 2 2 2 2 2 2 2 2
 2 2 2 2 2 2 2 2 2 2
 2 2 2 2 2 2 2 2 2 2
 2 2 2 2 2 2 2 2 2 2
 2 2 2 2 2 2 2 2 2 2
 2 2 2 2 2 2 2 2 2 2
 2 2 2 2 2 2 2 2 2 2
 2 2 2 2 2 2 2 2 2 2
 2 2 2 2 2 2 2 2 2 2
 2 2 2 2 2 2 2 2 2 2
 2 2 2 2 2 2 2 2 2 2
 2 2 2 2 2 2 2 2 2 2
 2 2 2 2 2 2 2 2 2 2
 2 2 2 2 2 2 2 2 2 2
 2 2 2 2 2 2 2 2 2 2
 2 0 0 0 0 0 0 0 0 0
 0 0 0 0 0 0 0 0 0 0
 0 0 0 0 0 0 0 0 0 0
 0 0 0 0 0 0 0 0 0 0
 0 0 0 0 0 0 0 0 0 0
 0 0 0 0 0 0 0 0 0 0
 0 0 0 0 0 0 0 0 0 0
 0 0 0 0 0 0 0 0 0 0
 0 0 0 0 0 0 0 0 0 0
 0 0 0 0 0 0 0 0 0 0
 0 0 0 0 0 0 0 0 0 0
 0 0 0 0 0 0 0 0 0 0
 0 0 0 0 0 0 0 0 0 0
 0 0 0 0 0 0 0 0 0 0
 0 0 0 0 0 0 0 0 0 0
 0 0 0 0 0 0 0 0 0 0
 0 0 0 0 0 0 0 0 0 0
 0 0 0 0 0 0 0 0 0 0
 0 0 0 0 0 0 0 0 0 0
 0 0 0 0 0 0 0 0 0 0
 0 0 0 0 0 0 0 0 0 0
 0 0 0 0 0 0 0 0 0 0
 0 0 0 0 0 0 0 0 0 0
 0 0 0 0 0 0 0 0 0 0
 0 0 0 0 0 0 0 0 0 0
 0 0 0 0 0 0 0 0 0 0
 0 0 0 0 0 0 0 0 0 0
 0 0 0 0 0 0 0 0 0 0
 0 0 0 0 0 0 0 0 0 0
 0 0 0 0 0 0 0 0 0 0
 0 0 0 0 0 0 0 0 0 0
 0 0 0 0 0 0 0 0 0 0
 0 0 0 0 0 0 0 0 0 0
 0 0 0 0 0 0 0 0 0 0
 0 0 0 0 0 0 0 0 0 0
 0 0 0 0 0 0 0 0 0 0
 0 0 0 0 0 0 0 0 0 0
 0 0 0 0 0 0 0 0 0 0
 0 0 0 0 0 0 0 0 0 0
 0 0 0 0 0 0 0 0 0 0
 0 0 0 0 0 0 0 0 0 0
 0 0 0 0 0 0 0 0 0 0
 0 0 0 0 0 0 0 0 0 0
 0 0 0 0 0 0 0 0 0 0
 0 0 0 0 0 0 0 0 0 0
 0 0 0 0 0 0 0 0 0 0
 0 0 0 0 0 0 0 0 0 0
 0 0 0 0 0 0 0 0 0 0
 0 0 0 0 0 0 0 0 0 0
 0 0 0 0 0 0 0 0 0 0
 0 0 0 0 0 0 0 0 0 0
 0 0 0 0 0 0 0 0 0 0
 0 0 0 0 0 0 0 0 0 0
 0 0 0 0 0 0 0 0 0 0
 0 0 0 0 0 0 0 0 0 0
 0 0 0 0 0 0 0 0 0 0
 0 0 0 0 0 0 0 0 0 0
 0 0 0 0 0 0 0 0 0 0
 0 0 0 0 0 0 0 0 0 0
 0 0 0 0 0 0 0 0 0 0
 0 0 0 0 0 0 0 0 0 0
 0 0 0 0 0 0 0 0 0 0
 0 0 0 0 0 0 0 0 0 0
 0 0 0 0 0 0 0 0 0 0
 0 0 0 0 0 0 0 0 0 0
 0 0 0 0 0 0 0 0 0 0
 0 0 0 0 0 0 0 0 0 0
 0 0 0 0 0 0 0 0 0 0
 0 0 0 0 0 0 0 0 0 0
 0 0 0 0 0 0 0 0 0 0
 0 0 0 0 0 0 0 0 0 0
 0 0 0 0 0 0 0 0 0 0
 0 0 0 0 0 0 0 0 0 0
 0 0 0 0 0 0 0 0 0 0
 0 0 0 0 0 0 0 0 0 0
 0 0 0 0 0 0 0 0 0 0
 0 0 0 0 0
        </DataArray>
      </PointData>
      <Points>
        <DataArray type="Float32" NumberOfComponents="3" format="ascii">
  0.000000  0.500000  0.000000
  0.000000  0.490000  0.000000
  0.000000  0.480000  0.000000
  0.000000  0.470000  0.000000
  0.000000  0.460000  0.000000
  0.000000  0.450000  0.000000
  0.000000  0.440000  0.000000
  0.000000  0.430000  0.000000
  0.000000  0.420000  0.000000
  0.000000  0.410000  0.000000
  0.000000  0.400000  0.000000
  0.000000  0.390000  0.000000
  0.000000  0.380000  0.000000
  0.000000  0.370000  0.000000
  0.000000  0.360000  0.000000
  0.000000  0.350000  0.000000
  0.000000  0.340000  0.000000
  0.000000  0.330000  0.000000
  0.000000  0.320000  0.000000
  0.000000  0.310000  0.000000
  0.000000  0.300000  0.000000
  0.000000  0.290000  0.000000
  0.000000  0.280000  0.000000
  0.000000  0.270000  0.000000
  0.000000  0.260000  0.000000
  0.000000  0.250000  0.000000
  0.000000  0.240000  0.000000
  0.000000  0.230000  0.000000
  0.000000  0.220000  0.000000
  0.000000  0.210000  0.000000
  0.000000  0.200000  0.000000
  0.000000  0.190000  0.000000
  0.000000  0.180000  0.000000
  0.000000  0.170000  0.000000
  0.000000  0.160000  0.000000
  0.000000  0.150000  0.000000
  0.000000  0.140000  0.000000
  0.000000  0.130000  0.000000
  0.000000  0.120000  0.000000
  0.000000  0.110000  0.000000
  0.000000  0.100000  0.000000
  0.000000  0.090000  0.000000
  0.000000  0.080000  0.000000
  0.000000  0.070000  0.000000
  0.000000  0.060000  0.000000
  0.000000  0.050000  0.000000
  0.000000  0.040000  0.000000
  0.000000  0.030000  0.000000
  0.000000  0.020000  0.000000
  0.000000  0.010000  0.000000
 -0.100000  0.000000  0.000000
 -0.090000  0.000000  0.000000
 -0.080000  0.000000  0.000000
 -0.070000  0.000000  0.000000
 -0.060000  0.000000  0.000000
 -0.050000  0.000000  0.000000
 -0.040000  0.000000  0.000000
 -0.030000  0.000000  0.000000
 -0.020000  0.000000  0.000000
 -0.010000  0.000000  0.000000
 -0.000000  0.000000  0.000000
  0.010000  0.000000  0.000000
  0.020000  0.000000  0.000000
  0.030000  0.000000  0.000000
  0.040000  0.000000  0.000000
  0.050000  0.000000  0.000000
  0.060000  0.000000  0.000000
  0.070000  0.000000  0.000000
  0.080000  0.000000  0.000000
  0.090000  0.000000  0.000000
  0.100000  0.000000  0.000000
  0.110000  0.000000  0.000000
  0.120000  0.000000  0.000000
  0.130000  0.000000  0.000000
  0.140000  0.000000  0.000000
  0.150000  0.000000  0.000000
  0.160000  0.000000  0.000000
  0.170000  0.000000  0.000000
  0.180000  0.000000  0.000000
  0.190000  0.000000  0.000000
  0.200000  0.000000  0.000000
  0.210000  0.000000  0.000000
  0.220000  0.000000  0.000000
  0.230000  0.000000  0.000000
  0.240000  0.000000  0.000000
  0.250000  0.000000  0.000000
  0.260000  0.000000  0.000000
  0.270000  0.000000  0.000000
  0.280000  0.000000  0.000000
  0.290000  0.000000  0.000000
  0.300000  0.000000  0.000000
  0.310000  0.000000  0.000000
  0.320000  0.000000  0.000000
  0.330000  0.000000  0.000000
  0.340000  0.000000  0.000000
  0.350000  0.000000  0.000000
  0.360000  0.000000  0.000000
  0.370000  0.000000  0.000000
  0.380000  0.000000  0.000000
  0.390000  0.000000  0.000000
  0.400000  0.000000  0.000000
  0.410000  0.000000  0.000000
  0.420000  0.000000  0.000000
  0.430000  0.000000  0.000000
  0.440000  0.000000  0.000000
  0.450000  0.000000  0.000000
  0.460000  0.000000  0.000000
  0.470000  0.000000  0.000000
  0.480000  0.000000  0.000000
  0.490000  0.000000  0.000000
  0.500000  0.000000  0.000000
  0.510000  0.000000  0.000000
  0.520000  0.000000  0.000000
  0.530000  0.000000  0.000000
  0.540000  0.000000  0.000000
  0.550000  0.000000  0.000000
  0.560000  0.000000  0.000000
  0.570000  0.000000  0.000000
  0.580000  0.000000  0.000000
  0.590000  0.000000  0.000000
  0.600000  0.000000  0.000000
  0.610000  0.000000  0.000000
  0.620000  0.000000  0.000000
  0.630000  0.000000  0.000000
  0.640000  0.000000  0.000000
  0.650000  0.000000  0.000000
  0.660000  0.000000  0.000000
  0.670000  0.000000  0.000000
  0.680000  0.000000  0.000000
  0.690000  0.000000  0.000000
  0.700000  0.000000  0.000000
  0.710000  0.000000  0.000000
  0.720000  0.000000  0.000000
  0.730000  0.000000  0.000000
  0.740000  0.000000  0.000000
  0.750000  0.000000  0.000000
  0.760000  0.000000  0.000000
  0.770000  0.000000  0.000000
  0.780000  0.000000  0.000000
  0.790000  0.000000  0.000000
  0.800000  0.000000  0.000000
  0.700000  0.010000  0.000000
  0.700000  0.020000  0.000000
  0.700000  0.030000  0.000000
  0.700000  0.040000  0.000000
  0.700000  0.050000  0.000000
  0.700000  0.060000  0.000000
  0.700000  0.070000  0.000000
  0.700000  0.080000  0.000000
  0.700000  0.090000  0.000000
  0.700000  0.100000  0.000000
  0.700000  0.110000  0.000000
  0.700000  0.120000  0.000000
  0.700000  0.130000  0.000000
  0.700000  0.140000  0.000000
  0.700000  0.150000  0.000000
  0.700000  0.160000  0.000000
  0.700000  0.170000  0.000000
  0.700000  0.180000  0.000000
  0.700000  0.190000  0.000000
  0.700000  0.200000  0.000000
  0.700000  0.210000  0.000000
  0.700000  0.220000  0.000000
  0.700000  0.230000  0.000000
  0.700000  0.240000  0.000000
  0.700000  0.250000  0.000000
  0.700000  0.260000  0.000000
  0.700000  0.270000  0.000000
  0.700000  0.280000  0.000000
  0.700000  0.290000  0.000000
  0.700000  0.300000  0.000000
  0.700000  0.310000  0.000000
  0.700000  0.320000  0.000000
  0.700000  0.330000  0.000000
  0.700000  0.340000  0.000000
  0.700000  0.350000  0.000000
  0.700000  0.360000  0.000000
  0.700000  0.370000  0.000000
  0.700000  0.380000  0.000000
  0.700000  0.390000  0.000000
  0.700000  0.400000  0.000000
  0.700000  0.410000  0.000000
  0.700000  0.420000  0.000000
  0.700000  0.430000  0.000000
  0.700000  0.440000  0.000000
  0.700000  0.450000  0.000000
  0.700000  0.460000  0.000000
  0.700000  0.470000  0.000000
  0.700000  0.480000  0.000000
  0.700000  0.490000  0.000000
  0.700000  0.500000  0.000000
  0.012735  0.009078  0.000000
  0.023562  0.015784  0.000000
  0.031979  0.016932  0.000000
  0.009389  0.015278  0.000000
  0.017635  0.026959  0.000000
  0.011619  0.025661  0.000000
  0.028979  0.026573  0.000000
  0.033216  0.033644  0.000000
  0.043457  0.033853  0.000000
  0.022875  0.035566  0.000000
  0.033432  0.042779  0.000000
  0.008340  0.035609  0.000000
  0.012295  0.045628  0.000000
  0.007800  0.055570  0.000000
  0.009566  0.070074  0.000000
  0.018867  0.070533  0.000000
  0.025434  0.077231  0.000000
  0.010870  0.077817  0.000000
  0.019789  0.091965  0.000000
  0.009251  0.088473  0.000000
  0.014292  0.098916  0.000000
  0.008479  0.103531  0.000000
  0.010512  0.115666  0.000000
  0.012689  0.120907  0.000000
  0.009907  0.130651  0.000000
  0.016417  0.137277  0.000000
  0.010978  0.140349  0.000000
  0.020338  0.149423  0.000000
  0.008403  0.153125  0.000000
  0.023833  0.150558  0.000000
  0.042832  0.008475  0.000000
  0.026558  0.008650  0.000000
  0.050389  0.010859  0.000000
  0.041304  0.019750  0.000000
  0.058698  0.015221  0.000000
  0.057041  0.029168  0.000000
  0.074094  0.024206  0.000000
  0.045768  0.022834  0.000000
  0.050649  0.048414  0.000000
  0.045734  0.041959  0.000000
  0.037399  0.053595  0.000000
  0.018815  0.044248  0.000000
  0.042559  0.058823  0.000000
  0.029689  0.049634  0.000000
  0.048855  0.064654  0.000000
  0.017620  0.059380  0.000000
  0.020951  0.055938  0.000000
  0.030780  0.069359  0.000000
  0.039970  0.079889  0.000000
  0.021550  0.085060  0.000000
  0.035541  0.096347  0.000000
  0.030354  0.098017  0.000000
  0.021622  0.106305  0.000000
  0.030961  0.108927  0.000000
  0.022132  0.115479  0.000000
  0.029811  0.122041  0.000000
  0.024752  0.126440  0.000000
  0.029993  0.133633  0.000000
  0.028862  0.138948  0.000000
  0.032006  0.152264  0.000000
  0.084480  0.008883  0.000000
  0.066402  0.008221  0.000000
  0.072084  0.013642  0.000000
  0.061633  0.021204  0.000000
  0.081438  0.023729  0.000000
  0.094750  0.023937  0.000000
  0.111524  0.025738  0.000000
  0.084303  0.035412  0.000000
  0.080593  0.045882  0.000000
  0.053812  0.033468  0.000000
  0.066572  0.045634  0.000000
  0.070031  0.037328  0.000000
  0.056145  0.058421  0.000000
  0.056916  0.073789  0.000000
  0.070387  0.071061  0.000000
  0.032594  0.064329  0.000000
  0.056911  0.078713  0.000000
  0.043252  0.071973  0.000000
  0.045611  0.084892  0.000000
  0.033138  0.085611  0.000000
  0.049171  0.092557  0.000000
  0.047438  0.097266  0.000000
  0.045445  0.106950  0.000000
  0.038780  0.110550  0.000000
  0.047078  0.117583  0.000000
  0.043387  0.123584  0.000000
  0.043242  0.129842  0.000000
  0.044135  0.136394  0.000000
  0.042699  0.144487  0.000000
  0.039751  0.149114  0.000000
  0.110850  0.009447  0.000000
  0.095959  0.009621  0.000000
  0.111026  0.020088  0.000000
  0.084380  0.015709  0.000000
  0.113606  0.038037  0.000000
  0.103060  0.013265  0.000000
  0.103388  0.035135  0.000000
  0.097078  0.025419  0.000000
  0.091318  0.048144  0.000000
  0.069252  0.032642  0.000000
  0.101870  0.049122  0.000000
  0.068153  0.053172  0.000000
  0.092591  0.056627  0.000000
  0.057562  0.046952  0.000000
  0.062056  0.064288  0.000000
  0.080266  0.052639  0.000000
  0.072000  0.062640  0.000000
  0.078289  0.076359  0.000000
  0.067758  0.082148  0.000000
  0.062330  0.087714  0.000000
  0.071494  0.095418  0.000000
  0.061836  0.096632  0.000000
  0.056800  0.108785  0.000000
  0.063725  0.104801  0.000000
  0.060211  0.115351  0.000000
  0.059124  0.122719  0.000000
  0.060845  0.128956  0.000000
  0.058355  0.135970  0.000000
  0.055143  0.144979  0.000000
  0.057334  0.149425  0.000000
  0.135382  0.008836  0.000000
  0.122061  0.009357  0.000000
  0.135696  0.017559  0.000000
  0.125718  0.015568  0.000000
  0.147063  0.018135  0.000000
  0.124495  0.025089  0.000000
  0.120375  0.031223  0.000000
  0.134110  0.032250  0.000000
  0.087711  0.036007  0.000000
  0.126759  0.044407  0.000000
  0.100684  0.039756  0.000000
  0.120288  0.043783  0.000000
  0.111564  0.050904  0.000000
  0.101289  0.060352  0.000000
  0.108954  0.068042  0.000000
  0.082222  0.062262  0.000000
  0.095552  0.068458  0.000000
  0.086302  0.069112  0.000000
  0.092661  0.087479  0.000000
  0.084262  0.081457  0.000000
  0.077574  0.088252  0.000000
  0.085604  0.095250  0.000000
  0.080685  0.103009  0.000000
  0.074791  0.107455  0.000000
  0.078891  0.113193  0.000000
  0.075804  0.121830  0.000000
  0.073360  0.125058  0.000000
  0.072109  0.134969  0.000000
  0.070494  0.141460  0.000000
  0.066024  0.147191  0.000000
  0.157250  0.009904  0.000000
  0.148091  0.010010  0.000000
  0.166976  0.022612  0.000000
  0.154633  0.022074  0.000000
  0.188752  0.016436  0.000000
  0.161164  0.028812  0.000000
  0.180804  0.017121  0.000000
  0.137091  0.026943  0.000000
  0.148975  0.030408  0.000000
  0.161037  0.039534  0.000000
  0.147253  0.045797  0.000000
  0.149891  0.038507  0.000000
  0.138355  0.039908  0.000000
  0.123655  0.058147  0.000000
  0.112440  0.057229  0.000000
  0.119175  0.068573  0.000000
  0.105704  0.074874  0.000000
  0.122388  0.073877  0.000000
  0.095923  0.077649  0.000000
  0.110764  0.083098  0.000000
  0.101297  0.089359  0.000000
  0.103695  0.095831  0.000000
  0.093485  0.099662  0.000000
  0.096766  0.107154  0.000000
  0.095282  0.113664  0.000000
  0.090157  0.118233  0.000000
  0.088311  0.125436  0.000000
  0.087808  0.132300  0.000000
  0.083133  0.140978  0.000000
  0.085074  0.144781  0.000000
  0.202814  0.010144  0.000000
  0.171558  0.009060  0.000000
  0.185824  0.008863  0.000000
  0.166967  0.013619  0.000000
  0.221905  0.027492  0.000000
  0.198750  0.015034  0.000000
  0.200656  0.026697  0.000000
  0.182740  0.026362  0.000000
  0.171983  0.030039  0.000000
  0.179753  0.037922  0.000000
  0.170798  0.040943  0.000000
  0.176389  0.051008  0.000000
  0.157189  0.051388  0.000000
  0.135016  0.048981  0.000000
  0.142588  0.056046  0.000000
  0.128332  0.057219  0.000000
  0.136509  0.066399  0.000000
  0.135379  0.071671  0.000000
  0.129662  0.079105  0.000000
  0.116994  0.084389  0.000000
  0.127529  0.089959  0.000000
  0.117242  0.094300  0.000000
  0.114250  0.100640  0.000000
  0.116008  0.106912  0.000000
  0.107973  0.111058  0.000000
  0.109117  0.118500  0.000000
  0.105594  0.124528  0.000000
  0.102072  0.130738  0.000000
  0.099098  0.137912  0.000000
  0.095290  0.143046  0.000000
  0.222120  0.011334  0.000000
  0.210552  0.014569  0.000000
  0.254005  0.020305  0.000000
  0.221082  0.014663  0.000000
  0.259044  0.027751  0.000000
  0.233072  0.010819  0.000000
  0.236969  0.025004  0.000000
  0.209958  0.023430  0.000000
  0.224850  0.029319  0.000000
  0.212820  0.034055  0.000000
  0.199338  0.030851  0.000000
  0.185978  0.032065  0.000000
  0.187889  0.044777  0.000000
  0.162586  0.048395  0.000000
  0.168188  0.062481  0.000000
  0.155975  0.062066  0.000000
  0.146831  0.060621  0.000000
  0.163520  0.066755  0.000000
  0.147582  0.072793  0.000000
  0.152720  0.075016  0.000000
  0.144463  0.084655  0.000000
  0.136631  0.086422  0.000000
  0.138197  0.096991  0.000000
  0.130858  0.098311  0.000000
  0.131568  0.107438  0.000000
  0.126707  0.113229  0.000000
  0.122290  0.118565  0.000000
  0.118712  0.126873  0.000000
  0.114424  0.137178  0.000000
  0.111626  0.139738  0.000000
  0.260928  0.011293  0.000000
  0.242593  0.011755  0.000000
  0.266894  0.012441  0.000000
  0.250205  0.011901  0.000000
  0.284016  0.016783  0.000000
  0.273738  0.017019  0.000000
  0.268669  0.024324  0.000000
  0.250217  0.028639  0.000000
  0.237375  0.020356  0.000000
  0.240131  0.033802  0.000000
  0.218067  0.040044  0.000000
  0.214556  0.048521  0.000000
  0.211920  0.054010  0.000000
  0.197544  0.040527  0.000000
  0.199189  0.052882  0.000000
  0.174857  0.055084  0.000000
  0.189688  0.051176  0.000000
  0.184583  0.061866  0.000000
  0.177925  0.070096  0.000000
  0.169842  0.074878  0.000000
  0.169165  0.082360  0.000000
  0.155015  0.083202  0.000000
  0.155250  0.090388  0.000000
  0.150818  0.095543  0.000000
  0.150004  0.103125  0.000000
  0.143043  0.110109  0.000000
  0.138872  0.115831  0.000000
  0.133009  0.125472  0.000000
  0.128334  0.132148  0.000000
  0.126874  0.137003  0.000000
  0.315009  0.010930  0.000000
  0.286255  0.010219  0.000000
  0.328404  0.012788  0.000000
  0.294288  0.013157  0.000000
  0.327946  0.030863  0.000000
  0.303071  0.011149  0.000000
  0.324269  0.026568  0.000000
  0.282051  0.025563  0.000000
  0.267339  0.036525  0.000000
  0.255197  0.037918  0.000000
  0.247738  0.041797  0.000000
  0.243871  0.046846  0.000000
  0.204565  0.042698  0.000000
  0.233538  0.039495  0.000000
  0.227629  0.043807  0.000000
  0.225686  0.055584  0.000000
  0.209447  0.064107  0.000000
  0.198981  0.060742  0.000000
  0.200803  0.070254  0.000000
  0.189556  0.066609  0.000000
  0.192209  0.076535  0.000000
  0.182942  0.078773  0.000000
  0.178100  0.085036  0.000000
  0.170926  0.091205  0.000000
  0.168422  0.097604  0.000000
  0.160574  0.105712  0.000000
  0.154854  0.113428  0.000000
  0.150734  0.119110  0.000000
  0.145845  0.128144  0.000000
  0.140982  0.131686  0.000000
  0.357446  0.011433  0.000000
  0.318666  0.014940  0.000000
  0.373634  0.011461  0.000000
  0.345883  0.010747  0.000000
  0.368830  0.012448  0.000000
  0.335282  0.011369  0.000000
  0.344296  0.018890  0.000000
  0.332560  0.021611  0.000000
  0.310110  0.024487  0.000000
  0.304339  0.036279  0.000000
  0.305076  0.017760  0.000000
  0.276561  0.031339  0.000000
  0.270762  0.041985  0.000000
  0.276133  0.053858  0.000000
  0.262797  0.047163  0.000000
  0.246417  0.058932  0.000000
  0.236587  0.051988  0.000000
  0.231085  0.060581  0.000000
  0.229703  0.068504  0.000000
  0.217666  0.063508  0.000000
  0.211365  0.076153  0.000000
  0.207883  0.079551  0.000000
  0.195985  0.084534  0.000000
  0.195455  0.089108  0.000000
  0.186272  0.096155  0.000000
  0.177109  0.102041  0.000000
  0.170084  0.107134  0.000000
  0.167043  0.117125  0.000000
  0.162647  0.129176  0.000000
  0.155166  0.129051  0.000000
  0.421265  0.013493  0.000000
  0.395851  0.011281  0.000000
  0.430601  0.010968  0.000000
  0.406307  0.012670  0.000000
  0.417113  0.012375  0.000000
  0.385526  0.011849  0.000000
  0.383979  0.017355  0.000000
  0.365140  0.025355  0.000000
  0.356948  0.016103  0.000000
  0.347984  0.025937  0.000000
  0.341225  0.036531  0.000000
  0.312563  0.031895  0.000000
  0.297224  0.029196  0.000000
  0.301311  0.046345  0.000000
  0.284983  0.040251  0.000000
  0.282768  0.047331  0.000000
  0.272868  0.060517  0.000000
  0.260393  0.052360  0.000000
  0.264484  0.063816  0.000000
  0.254314  0.058541  0.000000
  0.243024  0.065619  0.000000
  0.242805  0.073313  0.000000
  0.222032  0.073263  0.000000
  0.222057  0.084803  0.000000
  0.210407  0.090400  0.000000
  0.197806  0.098088  0.000000
  0.192051  0.105459  0.000000
  0.186056  0.111173  0.000000
  0.176762  0.118400  0.000000
  0.171341  0.122342  0.000000
  0.515772  0.011613  0.000000
  0.469032  0.012715  0.000000
  0.478294  0.011280  0.000000
  0.451361  0.010199  0.000000
  0.464111  0.012194  0.000000
  0.438167  0.012684  0.000000
  0.420017  0.027132  0.000000
  0.418873  0.026042  0.000000
  0.402416  0.015502  0.000000
  0.387042  0.024765  0.000000
  0.371111  0.025322  0.000000
  0.359790  0.031307  0.000000
  0.346955  0.032555  0.000000
  0.350755  0.045811  0.000000
  0.319195  0.038538  0.000000
  0.318611  0.050128  0.000000
  0.311131  0.044779  0.000000
  0.292899  0.028149  0.000000
  0.290495  0.039655  0.000000
  0.300755  0.053440  0.000000
  0.285704  0.058333  0.000000
  0.269610  0.070443  0.000000
  0.255049  0.069762  0.000000
  0.234721  0.080110  0.000000
  0.229260  0.081613  0.000000
  0.217325  0.091553  0.000000
  0.211698  0.099243  0.000000
  0.202784  0.105956  0.000000
  0.195611  0.118293  0.000000
  0.186380  0.118305  0.000000
  0.558387  0.011649  0.000000
  0.521478  0.013368  0.000000
  0.537053  0.012386  0.000000
  0.504300  0.014032  0.000000
  0.522902  0.026493  0.000000
  0.486921  0.013750  0.000000
  0.464439  0.025916  0.000000
  0.468187  0.035131  0.000000
  0.433651  0.021957  0.000000
  0.448782  0.027186  0.000000
  0.432040  0.035535  0.000000
  0.404829  0.026490  0.000000
  0.389995  0.029649  0.000000
  0.398205  0.040600  0.000000
  0.376497  0.035280  0.000000
  0.359015  0.040301  0.000000
  0.364898  0.053194  0.000000
  0.333895  0.040487  0.000000
  0.337402  0.055025  0.000000
  0.329902  0.043906  0.000000
  0.313114  0.058266  0.000000
  0.296192  0.057086  0.000000
  0.288381  0.064580  0.000000
  0.266416  0.078479  0.000000
  0.255194  0.078248  0.000000
  0.244166  0.086303  0.000000
  0.236694  0.097195  0.000000
  0.223861  0.103047  0.000000
  0.215446  0.110509  0.000000
  0.205740  0.113988  0.000000
  0.610240  0.009849  0.000000
  0.581061  0.014889  0.000000
  0.595090  0.011338  0.000000
  0.573960  0.010501  0.000000
  0.547437  0.027009  0.000000
  0.545388  0.010982  0.000000
  0.499531  0.010299  0.000000
  0.511004  0.038388  0.000000
  0.471495  0.025845  0.000000
  0.486932  0.016789  0.000000
  0.479248  0.027898  0.000000
  0.446577  0.014560  0.000000
  0.456661  0.019977  0.000000
  0.450814  0.030610  0.000000
  0.403074  0.029481  0.000000
  0.416413  0.038488  0.000000
  0.408592  0.039709  0.000000
  0.381878  0.035308  0.000000
  0.379648  0.049089  0.000000
  0.367468  0.039222  0.000000
  0.348422  0.047765  0.000000
  0.325209  0.055218  0.000000
  0.315279  0.064395  0.000000
  0.302509  0.066257  0.000000
  0.282234  0.070858  0.000000
  0.274382  0.081491  0.000000
  0.251761  0.082511  0.000000
  0.242896  0.092719  0.000000
  0.235491  0.109486  0.000000
  0.221406  0.106984  0.000000
  0.635524  0.011667  0.000000
  0.625308  0.009865  0.000000
  0.600738  0.018057  0.000000
  0.609543  0.033767  0.000000
  0.590161  0.012255  0.000000
  0.560145  0.013252  0.000000
  0.582940  0.026935  0.000000
  0.562580  0.026269  0.000000
  0.527476  0.014624  0.000000
  0.544070  0.017851  0.000000
  0.535373  0.025302  0.000000
  0.514086  0.025982  0.000000
  0.496187  0.026340  0.000000
  0.505041  0.020647  0.000000
  0.484145  0.039850  0.000000
  0.461009  0.042995  0.000000
  0.446704  0.041669  0.000000
  0.435854  0.027351  0.000000
  0.429373  0.039322  0.000000
  0.407986  0.052609  0.000000
  0.392260  0.042468  0.000000
  0.372767  0.050826  0.000000
  0.350724  0.058610  0.000000
  0.342209  0.063604  0.000000
  0.325686  0.064391  0.000000
  0.303970  0.073450  0.000000
  0.285346  0.077204  0.000000
  0.270595  0.089763  0.000000
  0.257838  0.098918  0.000000
  0.238918  0.101759  0.000000
  0.661447  0.022330  0.000000
  0.669435  0.025682  0.000000
  0.660514  0.010932  0.000000
  0.635190  0.020938  0.000000
  0.639993  0.036092  0.000000
  0.616966  0.016962  0.000000
  0.625163  0.018594  0.000000
  0.609118  0.021221  0.000000
  0.595120  0.047810  0.000000
  0.593340  0.029831  0.000000
  0.573866  0.016894  0.000000
  0.559359  0.024156  0.000000
  0.555460  0.039082  0.000000
  0.544659  0.034257  0.000000
  0.529217  0.030816  0.000000
  0.525180  0.039309  0.000000
  0.491246  0.040924  0.000000
  0.488852  0.029035  0.000000
  0.466460  0.042500  0.000000
  0.445561  0.039902  0.000000
  0.420433  0.044885  0.000000
  0.415207  0.053903  0.000000
  0.394685  0.050193  0.000000
  0.385522  0.064691  0.000000
  0.355593  0.069410  0.000000
  0.337860  0.061250  0.000000
  0.323796  0.072066  0.000000
  0.300341  0.076629  0.000000
  0.281737  0.091454  0.000000
  0.264955  0.091510  0.000000
  0.686134  0.012568  0.000000
  0.685296  0.043647  0.000000
  0.680491  0.029359  0.000000
  0.671143  0.011894  0.000000
  0.674114  0.014274  0.000000
  0.651911  0.011582  0.000000
  0.644461  0.012540  0.000000
  0.649829  0.022563  0.000000
  0.611951  0.029859  0.000000
  0.609940  0.054814  0.000000
  0.625803  0.036989  0.000000
  0.629496  0.028205  0.000000
  0.621791  0.035855  0.000000
  0.604850  0.050791  0.000000
  0.574105  0.031879  0.000000
  0.567686  0.035194  0.000000
  0.547600  0.042129  0.000000
  0.530478  0.047049  0.000000
  0.509252  0.037149  0.000000
  0.496886  0.049877  0.000000
  0.482272  0.045315  0.000000
  0.469310  0.057401  0.000000
  0.436764  0.056178  0.000000
  0.431110  0.050014  0.000000
  0.401247  0.057524  0.000000
  0.383581  0.052627  0.000000
  0.359324  0.074654  0.000000
  0.331224  0.082615  0.000000
  0.296767  0.087911  0.000000
  0.288156  0.087956  0.000000
  0.692245  0.043488  0.000000
  0.690160  0.024612  0.000000
  0.685787  0.013608  0.000000
  0.678634  0.079704  0.000000
  0.677586  0.103381  0.000000
  0.692477  0.062163  0.000000
  0.677363  0.068408  0.000000
  0.674117  0.041041  0.000000
  0.670823  0.029748  0.000000
  0.665379  0.044956  0.000000
  0.653943  0.038137  0.000000
  0.652768  0.026617  0.000000
  0.640939  0.031822  0.000000
  0.635277  0.047912  0.000000
  0.595002  0.026672  0.000000
  0.613810  0.044942  0.000000
  0.582613  0.034558  0.000000
  0.586298  0.046523  0.000000
  0.556825  0.055447  0.000000
  0.547491  0.052052  0.000000
  0.518584  0.057342  0.000000
  0.500972  0.033979  0.000000
  0.499557  0.057726  0.000000
  0.456705  0.052334  0.000000
  0.441161  0.058154  0.000000
  0.430884  0.059695  0.000000
  0.400258  0.067665  0.000000
  0.363484  0.059302  0.000000
  0.328461  0.079656  0.000000
  0.313621  0.079188  0.000000
  0.651705  0.137342  0.000000
  0.684798  0.033094  0.000000
  0.655993  0.109599  0.000000
  0.688135  0.187037  0.000000
  0.665843  0.106998  0.000000
  0.692557  0.081765  0.000000
  0.682694  0.059179  0.000000
  0.675753  0.051065  0.000000
  0.684202  0.091874  0.000000
  0.677328  0.063241  0.000000
  0.678524  0.076427  0.000000
  0.664394  0.046885  0.000000
  0.655301  0.054975  0.000000
  0.647664  0.053376  0.000000
  0.649428  0.042906  0.000000
  0.640167  0.052857  0.000000
  0.619332  0.048865  0.000000
  0.596069  0.041139  0.000000
  0.569505  0.045679  0.000000
  0.575706  0.047391  0.000000
  0.560776  0.046025  0.000000
  0.537116  0.040288  0.000000
  0.518283  0.046037  0.000000
  0.496841  0.054236  0.000000
  0.477907  0.052522  0.000000
  0.457247  0.054044  0.000000
  0.414891  0.060792  0.000000
  0.391555  0.064769  0.000000
  0.365743  0.070249  0.000000
  0.348526  0.076224  0.000000
 -0.010000  0.500000  0.000000
 -0.010000  0.490000  0.000000
 -0.010000  0.480000  0.000000
 -0.010000  0.470000  0.000000
 -0.010000  0.460000  0.000000
 -0.010000  0.450000  0.000000
 -0.010000  0.440000  0.000000
 -0.010000  0.430000  0.000000
 -0.010000  0.420000  0.000000
 -0.010000  0.410000  0.000000
 -0.010000  0.400000  0.000000
 -0.010000  0.390000  0.000000
 -0.010000  0.380000  0.000000
 -0.010000  0.370000  0.000000
 -0.010000  0.360000  0.000000
 -0.010000  0.350000  0.000000
 -0.010000  0.340000  0.000000
 -0.010000  0.330000  0.000000
 -0.010000  0.320000  0.000000
 -0.010000  0.310000  0.000000
 -0.010000  0.300000  0.000000
 -0.010000  0.290000  0.000000
 -0.010000  0.280000  0.000000
 -0.010000  0.270000  0.000000
 -0.010000  0.260000  0.000000
 -0.010000  0.250000  0.000000
 -0.010000  0.240000  0.000000
 -0.010000  0.230000  0.000000
 -0.010000  0.220000  0.000000
 -0.010000  0.210000  0.000000
 -0.010000  0.200000  0.000000
 -0.010000  0.190000  0.000000
 -0.010000  0.180000  0.000000
 -0.010000  0.170000  0.000000
 -0.010000  0.160000  0.000000
 -0.010000  0.150000  0.000000
 -0.010000  0.140000  0.000000
 -0.010000  0.130000  0.000000
 -0.010000  0.120000  0.000000
 -0.010000  0.110000  0.000000
 -0.010000  0.100000  0.000000
 -0.010000  0.090000  0.000000
 -0.010000  0.080000  0.000000
 -0.010000  0.070000  0.000000
 -0.010000  0.060000  0.000000
 -0.010000  0.050000  0.000000
 -0.010000  0.040000  0.000000
 -0.010000  0.030000  0.000000
 -0.010000  0.020000  0.000000
 -0.010000  0.010000  0.000000
 -0.100000 -0.010000  0.000000
 -0.090000 -0.010000  0.000000
 -0.080000 -0.010000  0.000000
 -0.070000 -0.010000  0.000000
 -0.060000 -0.010000  0.000000
 -0.050000 -0.010000  0.000000
 -0.040000 -0.010000  0.000000
 -0.030000 -0.010000  0.000000