<?xml version="1.0" encoding="UTF-8"?>
<VTKFile type="UnstructuredGrid" version="1.0" byte_order="LittleEndian">
<UnstructuredGrid>
  <Piece NumberOfPoints="1555" NumberOfCells="1555">
      <PointData>
        <DataArray type="Int32" Name="Type" format="ascii">
 1 1 1 1 1 1 1 1 1 1
 1 1 1 1 1 1 1 1 1 1
 1 1 1 1 1 1 1 1 1 1
 1 1 1 1 1 1 1 1 1 1
 1 1 1 1 1 1 1 1 1 1
 1 1 1 1 1 1 1 1 1 1
 1 3 3 3 3 3 3 3 3 3
 3 3 3 3 3 3 3 3 3 3
 3 3 3 3 3 3 3 3 3 3
 3 3 3 3 3 3 3 3 3 3
 3 3 3 3 3 3 3 3 3 3
 3 3 3 3 3 3 3 3 3 3
 3 3 3 3 3 3 3 3 3 3
 1 1 1 1 1 1 1 1 1 1
 1 1 1 1 1 1 1 1 1 1
 1 1 1 1 1 1 1 1 1 1
 1 1 1 1 1 1 1 1 1 1
 1 1 1 1 1 1 1 1 1 1
 1 1 1 1 1 1 1 1 1 1
 1 2 2 2 2 2 2 2 2 2
 2 2 2 2 2 2 2 2 2 2
 2 2 2 2 2 2 2 2 2 2
 2 2 2 2 2 2 2 2 2 2
 2 2 2 2 2 2 2 2 2 2
 2 2 2 2 2 2 2 2 2 2
 2 2 2 2 2 2 2 2 2 2
 2 2 2 2 2 2 2 2 2 2
 2 2 2 2 2 2 2 2 2 2
 2 2 2 2 2 2 2 2 2 2
 2 2 2 2 2 2 2 2 2 2
 2 2 2 2 2 2 2 2 2 2
 2 2 2 2 2 2 2 2 2 2
 2 2 2 2 2 2 2 2 2 2
 2 2 2 2 2 2 2 2 2 2
 2 2 2 2 2 2 2 2 2 2
 2 2 2 2 2 2 2 2 2 2
 2 2 2 2 2 2 2 2 2 2
 2 2 2 2 2 2 2 2 2 2
 2 2 2 2 2 2 2 2 2 2
 2 2 2 2 2 2 2 2 2 2
 2 2 2 2 2 2 2 2 2 2
 2 2 2 2 2 2 2 2 2 2
 2 2 2 2 2 2 2 2 2 2
 2 2 2 2 2 2 2 2 2 2
 2 2 2 2 2 2 2 2 2 2
 2 2 2 2 2 2 2 2 2 2
 2 2 2 2 2 2 2 2 2 2
 2 2 2 2 2 2 2 2 2 2
 2 2 2 2 2 2 2 2 2 2
 2 2 2 2 2 2 2 2 2 2
 2 2 2 2 2 2 2 2 2 2
 2 2 2 2 2 2 2 2 2 2
 2 2 2 2 2 2 2 2 2 2
 2 2 2 2 2 2 2 2 2 2
 2 2 2 2 2 2 2 2 2 2
 2 2 2 2 2 2 2 2 2 2
 2 2 2 2 2 2 2 2 2 2
 2 2 2 2 2 2 2 2 2 2
 2 2 2 2 2 2 2 2 2 2
 2 2 2 2 2 2 2 2 2 2
 2 2 2 2 2 2 2 2 2 2
 2 2 2 2 2 2 2 2 2 2
 2 2 2 2 2 2 2 2 2 2
 2 2 2 2 2 2 2 2 2 2
 2 2 2 2 2 2 2 2 2 2
 2 2 2 2 2 2 2 2 2 2
 2 2 2 2 2 2 2 2 2 2
 2 2 2 2 2 2 2 2 2 2
 2 2 2 2 2 2 2 2 2 2
 2 2 2 2 2 2 2 2 2 2
 2 2 2 2 2 2 2 2 2 2
 2 2 2 2 2 2 2 2 2 2
 2 2 2 2 2 2 2 2 2 2
 2 2 2 2 2 2 2 2 2 2
 2 2 2 2 2 2 2 2 2 2
 2 2 2 2 2 2 2 2 2 2
 2 2 2 2 2 2 2 2 2 2
 2 2 2 2 2 2 2 2 2 2
 2 2 2 2 2 2 2 2 2 2
 2 0 0 0 0 0 0 0 0 0
 0 0 0 0 0 0 0 0 0 0
 0 0 0 0 0 0 0 0 0 0
 0 0 0 0 0 0 0 0 0 0
 0 0 0 0 0 0 0 0 0 0
 0 0 0 0 0 0 0 0 0 0
 0 0 0 0 0 0 0 0 0 0
 0 0 0 0 0 0 0 0 0 0
 0 0 0 0 0 0 0 0 0 0
 0 0 0 0 0 0 0 0 0 0
 0 0 0 0 0 0 0 0 0 0
 0 0 0 0 0 0 0 0 0 0
 0 0 0 0 0 0 0 0 0 0
 0 0 0 0 0 0 0 0 0 0
 0 0 0 0 0 0 0 0 0 0
 0 0 0 0 0 0 0 0 0 0
 0 0 0 0 0 0 0 0 0 0
 0 0 0 0 0 0 0 0 0 0
 0 0 0 0 0 0 0 0 0 0
 0 0 0 0 0 0 0 0 0 0
 0 0 0 0 0 0 0 0 0 0
 0 0 0 0 0 0 0 0 0 0
 0 0 0 0 0 0 0 0 0 0
 0 0 0 0 0 0 0 0 0 0
 0 0 0 0 0 0 0 0 0 0
 0 0 0 0 0 0 0 0 0 0
 0 0 0 0 0 0 0 0 0 0
 0 0 0 0 0 0 0 0 0 0
 0 0 0 0 0 0 0 0 0 0
 0 0 0 0 0 0 0 0 0 0
 0 0 0 0 0 0 0 0 0 0
 0 0 0 0 0 0 0 0 0 0
 0 0 0 0 0 0 0 0 0 0
 0 0 0 0 0 0 0 0 0 0
 0 0 0 0 0 0 0 0 0 0
 0 0 0 0 0 0 0 0 0 0
 0 0 0 0 0 0 0 0 0 0
 0 0 0 0 0 0 0 0 0 0
 0 0 0 0 0 0 0 0 0 0
 0 0 0 0 0 0 0 0 0 0
 0 0 0 0 0 0 0 0 0 0
 0 0 0 0 0 0 0 0 0 0
 0 0 0 0 0 0 0 0 0 0
 0 0 0 0 0 0 0 0 0 0
 0 0 0 0 0 0 0 0 0 0
 0 0 0 0 0 0 0 0 0 0
 0 0 0 0 0 0 0 0 0 0
 0 0 0 0 0 0 0 0 0 0
 0 0 0 0 0 0 0 0 0 0
 0 0 0 0 0 0 0 0 0 0
 0 0 0 0 0 0 0 0 0 0
 0 0 0 0 0 0 0 0 0 0
 0 0 0 0 0 0 0 0 0 0
 0 0 0 0 0 0 0 0 0 0
 0 0 0 0 0 0 0 0 0 0
 0 0 0 0 0 0 0 0 0 0
 0 0 0 0 0 0 0 0 0 0
 0 0 0 0 0 0 0 0 0 0
 0 0 0 0 0 0 0 0 0 0
 0 0 0 0 0 0 0 0 0 0
 0 0 0 0 0 0 0 0 0 0
 0 0 0 0 0 0 0 0 0 0
 0 0 0 0 0 0 0 0 0 0
 0 0 0 0 0 0 0 0 0 0
 0 0 0 0 0 0 0 0 0 0
 0 0 0 0 0 0 0 0 0 0
 0 0 0 0 0 0 0 0 0 0
 0 0 0 0 0 0 0 0 0 0
 0 0 0 0 0 0 0 0 0 0
 0 0 0 0 0 0 0 0 0 0
 0 0 0 0 0 0 0 0 0 0
 0 0 0 0 0 0 0 0 0 0
 0 0 0 0 0 0 0 0 0 0
 0 0 0 0 0 0 0 0 0 0
 0 0 0 0 0 0 0 0 0 0
 0 0 0 0 0 0 0 0 0 0
 0 0 0 0 0
        </DataArray>
      </PointData>
      <Points>
        <DataArray type="Float32" NumberOfComponents="3" format="ascii">
  0.000000  0.500000  0.000000
  0.000000  0.490000  0.000000
  0.000000  0.480000  0.000000
  0.000000  0.470000  0.000000
  0.000000  0.460000  0.000000
  0.000000  0.450000  0.000000
  0.000000  0.440000  0.000000
  0.000000  0.430000  0.000000
  0.000000  0.420000  0.000000
  0.000000  0.410000  0.000000
  0.000000  0.400000  0.000000
  0.000000  0.390000  0.000000
  0.000000  0.380000  0.000000
  0.000000  0.370000  0.000000
  0.000000  0.360000  0.000000
  0.000000  0.350000  0.000000
  0.000000  0.340000  0.000000
  0.000000  0.330000  0.000000
  0.000000  0.320000  0.000000
  0.000000  0.310000  0.000000
  0.000000  0.300000  0.000000
  0.000000  0.290000  0.000000
  0.000000  0.280000  0.000000
  0.000000  0.270000  0.000000
  0.000000  0.260000  0.000000
  0.000000  0.250000  0.000000
  0.000000  0.240000  0.000000
  0.000000  0.230000  0.000000
  0.000000  0.220000  0.000000
  0.000000  0.210000  0.000000
  0.000000  0.200000  0.000000
  0.000000  0.190000  0.000000
  0.000000  0.180000  0.000000
  0.000000  0.170000  0.000000
  0.000000  0.160000  0.000000
  0.000000  0.150000  0.000000
  0.000000  0.140000  0.000000
  0.000000  0.130000  0.000000
  0.000000  0.120000  0.000000
  0.000000  0.110000  0.000000
  0.000000  0.100000  0.000000
  0.000000  0.090000  0.000000
  0.000000  0.080000  0.000000
  0.000000  0.070000  0.000000
  0.000000  0.060000  0.000000
  0.000000  0.050000  0.000000
  0.000000  0.040000  0.000000
  0.000000  0.030000  0.000000
  0.000000  0.020000  0.000000
  0.000000  0.010000  0.000000
 -0.100000  0.000000  0.000000
 -0.090000  0.000000  0.000000
 -0.080000  0.000000  0.000000
 -0.070000  0.000000  0.000000
 -0.060000  0.000000  0.000000
 -0.050000  0.000000  0.000000
 -0.040000  0.000000  0.000000
 -0.030000  0.000000  0.000000
 -0.020000  0.000000  0.000000
 -0.010000  0.000000  0.000000
 -0.000000  0.000000  0.000000
  0.010000  0.000000  0.000000
  0.020000  0.000000  0.000000
  0.030000  0.000000  0.000000
  0.040000  0.000000  0.000000
  0.050000  0.000000  0.000000
  0.060000  0.000000  0.000000
  0.070000  0.000000  0.000000
  0.080000  0.000000  0.000000
  0.090000  0.000000  0.000000
  0.100000  0.000000  0.000000
  0.110000  0.000000  0.000000
  0.120000  0.000000  0.000000
  0.130000  0.000000  0.000000
  0.140000  0.000000  0.000000
  0.150000  0.000000  0.000000
  0.160000  0.000000  0.000000
  0.170000  0.000000  0.000000
  0.180000  0.000000  0.000000
  0.190000  0.000000  0.000000
  0.200000  0.000000  0.000000
  0.210000  0.000000  0.000000
  0.220000  0.000000  0.000000
  0.230000  0.000000  0.000000
  0.240000  0.000000  0.000000
  0.250000  0.000000  0.000000
  0.260000  0.000000  0.000000
  0.270000  0.000000  0.000000
  0.280000  0.000000  0.000000
  0.290000  0.000000  0.000000
  0.300000  0.000000  0.000000
  0.310000  0.000000  0.000000
  0.320000  0.000000  0.000000
  0.330000  0.000000  0.000000
  0.340000  0.000000  0.000000
  0.350000  0.000000  0.000000
  0.360000  0.000000  0.000000
  0.370000  0.000000  0.000000
  0.380000  0.000000  0.000000
  0.390000  0.000000  0.000000
  0.400000  0.000000  0.000000
  0.410000  0.000000  0.000000
  0.420000  0.000000  0.000000
  0.430000  0.000000  0.000000
  0.440000  0.000000  0.000000
  0.450000  0.000000  0.000000
  0.460000  0.000000  0.000000
  0.470000  0.000000  0.000000
  0.480000  0.000000  0.000000
  0.490000  0.000000  0.000000
  0.500000  0.000000  0.000000
  0.510000  0.000000  0.000000
  0.520000  0.000000  0.000000
  0.530000  0.000000  0.000000
  0.540000  0.000000  0.000000
  0.550000  0.000000  0.000000
  0.560000  0.000000  0.000000
  0.570000  0.000000  0.000000
  0.580000  0.000000  0.000000
  0.590000  0.000000  0.000000
  0.600000  0.000000  0.000000
  0.610000  0.000000  0.000000
  0.620000  0.000000  0.000000
  0.630000  0.000000  0.000000
  0.640000  0.000000  0.000000
  0.650000  0.000000  0.000000
  0.660000  0.000000  0.000000
  0.670000  0.000000  0.000000
  0.680000  0.000000  0.000000
  0.690000  0.000000  0.000000
  0.700000  0.000000  0.000000
  0.710000  0.000000  0.000000
  0.720000  0.000000  0.000000
  0.730000  0.000000  0.000000
  0.740000  0.000000  0.000000
  0.750000  0.000000  0.000000
  0.760000  0.000000  0.000000
  0.770000  0.000000  0.000000
  0.780000  0.000000  0.000000
  0.790000  0.000000  0.000000
  0.800000  0.000000  0.000000
  0.700000  0.010000  0.000000
  0.700000  0.020000  0.000000
  0.700000  0.030000  0.000000
  0.700000  0.040000  0.000000
  0.700000  0.050000  0.000000
  0.700000  0.060000  0.000000
  0.700000  0.070000  0.000000
  0.700000  0.080000  0.000000
  0.700000  0.090000  0.000000
  0.700000  0.100000  0.000000
  0.700000  0.110000  0.000000
  0.700000  0.120000  0.000000
  0.700000  0.130000  0.000000
  0.700000  0.140000  0.000000
  0.700000  0.150000  0.000000
  0.700000  0.160000  0.000000
  0.700000  0.170000  0.000000
  0.700000  0.180000  0.000000
  0.700000  0.190000  0.000000
  0.700000  0.200000  0.000000
  0.700000  0.210000  0.000000
  0.700000  0.220000  0.000000
  0.700000  0.230000  0.000000
  0.700000  0.240000  0.000000
  0.700000  0.250000  0.000000
  0.700000  0.260000  0.000000
  0.700000  0.270000  0.000000
  0.700000  0.280000  0.000000
  0.700000  0.290000  0.000000
  0.700000  0.300000  0.000000
  0.700000  0.310000  0.000000
  0.700000  0.320000  0.000000
  0.700000  0.330000  0.000000
  0.700000  0.340000  0.000000
  0.700000  0.350000  0.000000
  0.700000  0.360000  0.000000
  0.700000  0.370000  0.000000
  0.700000  0.380000  0.000000
  0.700000  0.390000  0.000000
  0.700000  0.400000  0.000000
  0.700000  0.410000  0.000000
  0.700000  0.420000  0.000000
  0.700000  0.430000  0.000000
  0.700000  0.440000  0.000000
  0.700000  0.450000  0.000000
  0.700000  0.460000  0.000000
  0.700000  0.470000  0.000000
  0.700000  0.480000  0.000000
  0.700000  0.490000  0.000000
  0.700000  0.500000  0.000000
  0.013986  0.008625  0.000000
  0.023478  0.016939  0.000000
  0.033419  0.015843  0.000000
  0.009235  0.014474  0.000000
  0.019091  0.025679  0.000000
  0.012283  0.024270  0.000000
  0.029914  0.026583  0.000000
  0.036365  0.031909  0.000000
  0.045992  0.031818  0.000000
  0.025280  0.036117  0.000000
  0.036512  0.041609  0.000000
  0.008454  0.033627  0.000000
  0.011688  0.042945  0.000000
  0.007515  0.054583  0.000000
  0.010452  0.067909  0.000000
  0.019575  0.066499  0.000000
  0.028405  0.074484  0.000000
  0.012080  0.076186  0.000000
  0.020794  0.089841  0.000000
  0.008724  0.084276  0.000000
  0.015141  0.095019  0.000000
  0.008878  0.100174  0.000000
  0.009795  0.111502  0.000000
  0.013005  0.117831  0.000000
  0.009350  0.126917  0.000000
  0.017359  0.133184  0.000000
  0.010873  0.136095  0.000000
  0.020594  0.144405  0.000000
  0.009744  0.148975  0.000000
  0.024524  0.144350  0.000000
  0.042374  0.008446  0.000000
  0.027855  0.008902  0.000000
  0.053292  0.010291  0.000000
  0.042459  0.019798  0.000000
  0.059666  0.013219  0.000000
  0.059348  0.028377  0.000000
  0.074811  0.021402  0.000000
  0.048136  0.020993  0.000000
  0.052218  0.047794  0.000000
  0.046824  0.040751  0.000000
  0.037525  0.052552  0.000000
  0.019180  0.040697  0.000000
  0.046658  0.055853  0.000000
  0.030113  0.048043  0.000000
  0.049130  0.063596  0.000000
  0.016925  0.057912  0.000000
  0.020345  0.051440  0.000000
  0.030999  0.065842  0.000000
  0.041729  0.075966  0.000000
  0.021409  0.080687  0.000000
  0.037905  0.092078  0.000000
  0.031897  0.093407  0.000000
  0.021177  0.102854  0.000000
  0.031773  0.104831  0.000000
  0.021844  0.110203  0.000000
  0.031380  0.117879  0.000000
  0.024797  0.120794  0.000000
  0.030408  0.127846  0.000000
  0.029076  0.133691  0.000000
  0.033943  0.145821  0.000000
  0.086036  0.008451  0.000000
  0.069136  0.008167  0.000000
  0.076537  0.014332  0.000000
  0.063725  0.020877  0.000000
  0.085675  0.023431  0.000000
  0.099201  0.021953  0.000000
  0.115662  0.025181  0.000000
  0.088686  0.035531  0.000000
  0.080806  0.044682  0.000000
  0.057614  0.033023  0.000000
  0.069301  0.043524  0.000000
  0.075829  0.034879  0.000000
  0.058991  0.056373  0.000000
  0.058897  0.073303  0.000000
  0.072895  0.068291  0.000000
  0.032033  0.060134  0.000000
  0.058433  0.075800  0.000000
  0.044167  0.068472  0.000000
  0.045343  0.081608  0.000000
  0.031774  0.083060  0.000000
  0.051682  0.088409  0.000000
  0.049698  0.093849  0.000000
  0.046497  0.103167  0.000000
  0.038305  0.106150  0.000000
  0.048754  0.113068  0.000000
  0.043105  0.118647  0.000000
  0.043959  0.124673  0.000000
  0.045834  0.131996  0.000000
  0.044449  0.138859  0.000000
  0.041471  0.143813  0.000000
  0.116656  0.010406  0.000000
  0.099844  0.009941  0.000000
  0.116678  0.019540  0.000000
  0.089063  0.015878  0.000000
  0.116301  0.039433  0.000000
  0.106872  0.010545  0.000000
  0.109311  0.033604  0.000000
  0.101032  0.024291  0.000000
  0.096320  0.046924  0.000000
  0.072747  0.031106  0.000000
  0.104566  0.048104  0.000000
  0.068167  0.051431  0.000000
  0.095985  0.054772  0.000000
  0.059617  0.043277  0.000000
  0.063597  0.062871  0.000000
  0.083989  0.049163  0.000000
  0.073717  0.059680  0.000000
  0.080662  0.072736  0.000000
  0.071026  0.079429  0.000000
  0.064193  0.085503  0.000000
  0.076256  0.091766  0.000000
  0.062512  0.093700  0.000000
  0.056963  0.105707  0.000000
  0.066967  0.099899  0.000000
  0.062264  0.111158  0.000000
  0.060671  0.118249  0.000000
  0.062705  0.123850  0.000000
  0.060707  0.131329  0.000000
  0.056899  0.140343  0.000000
  0.059570  0.142745  0.000000
  0.140275  0.008725  0.000000
  0.126727  0.009960  0.000000
  0.142448  0.016498  0.000000
  0.131454  0.014961  0.000000
  0.152759  0.017560  0.000000
  0.128596  0.025584  0.000000
  0.125277  0.030098  0.000000
  0.137690  0.030291  0.000000
  0.091945  0.034599  0.000000
  0.133550  0.042689  0.000000
  0.103227  0.037263  0.000000
  0.124277  0.042421  0.000000
  0.116338  0.048865  0.000000
  0.106280  0.059052  0.000000
  0.114255  0.066647  0.000000
  0.083985  0.059734  0.000000
  0.098939  0.065825  0.000000
  0.088457  0.064428  0.000000
  0.095705  0.084408  0.000000
  0.088372  0.077965  0.000000
  0.078716  0.083868  0.000000
  0.088846  0.091003  0.000000
  0.083955  0.099659  0.000000
  0.074343  0.103242  0.000000
  0.081590  0.108414  0.000000
  0.078027  0.117269  0.000000
  0.075554  0.119892  0.000000
  0.074869  0.130691  0.000000
  0.073088  0.136005  0.000000
  0.068016  0.141941  0.000000
  0.163542  0.010690  0.000000
  0.155272  0.008978  0.000000
  0.175537  0.022238  0.000000
  0.161682  0.022706  0.000000
  0.197008  0.017059  0.000000
  0.167703  0.028316  0.000000
  0.187276  0.014622  0.000000
  0.144630  0.025711  0.000000
  0.154571  0.028998  0.000000
  0.169403  0.038082  0.000000
  0.154303  0.043722  0.000000
  0.157785  0.037005  0.000000
  0.143215  0.036919  0.000000
  0.128912  0.056485  0.000000
  0.116836  0.055743  0.000000
  0.122300  0.066053  0.000000
  0.107304  0.072081  0.000000
  0.128430  0.070772  0.000000
  0.097808  0.074702  0.000000
  0.114086  0.080271  0.000000
  0.105955  0.085590  0.000000
  0.108080  0.092633  0.000000
  0.094840  0.096508  0.000000
  0.100560  0.102598  0.000000
  0.098088  0.109450  0.000000
  0.091823  0.113681  0.000000
  0.091049  0.120736  0.000000
  0.090697  0.126804  0.000000
  0.085586  0.135672  0.000000
  0.087841  0.138820  0.000000
  0.212335  0.011264  0.000000
  0.177505  0.008188  0.000000
  0.194676  0.008543  0.000000
  0.173921  0.014647  0.000000
  0.233101  0.027589  0.000000
  0.206424  0.013956  0.000000
  0.210573  0.025361  0.000000
  0.190587  0.024916  0.000000
  0.180854  0.028891  0.000000
  0.187609  0.037326  0.000000
  0.178508  0.039117  0.000000
  0.183191  0.049188  0.000000
  0.162027  0.049098  0.000000
  0.139566  0.045846  0.000000
  0.148242  0.052368  0.000000
  0.133569  0.055378  0.000000
  0.140335  0.064353  0.000000
  0.141763  0.068221  0.000000
  0.133102  0.076611  0.000000
  0.121592  0.082200  0.000000
  0.133027  0.086564  0.000000
  0.121128  0.090033  0.000000
  0.116068  0.096383  0.000000
  0.119907  0.104981  0.000000
  0.109937  0.106665  0.000000
  0.113746  0.113751  0.000000
  0.109569  0.120849  0.000000
  0.105881  0.125878  0.000000
  0.102742  0.132243  0.000000
  0.098441  0.138206  0.000000
  0.229098  0.011754  0.000000
  0.219637  0.014495  0.000000
  0.265025  0.020362  0.000000
  0.232566  0.013446  0.000000
  0.271832  0.028516  0.000000
  0.243726  0.011061  0.000000
  0.248228  0.025841  0.000000
  0.220923  0.023592  0.000000
  0.235909  0.026165  0.000000
  0.221567  0.032852  0.000000
  0.205936  0.028875  0.000000
  0.196108  0.029822  0.000000
  0.196819  0.042465  0.000000
  0.169796  0.047153  0.000000
  0.175305  0.062008  0.000000
  0.161136  0.059711  0.000000
  0.151366  0.056938  0.000000
  0.168672  0.063135  0.000000
  0.152806  0.070104  0.000000
  0.159296  0.070495  0.000000
  0.149211  0.081943  0.000000
  0.142824  0.081788  0.000000
  0.143057  0.093766  0.000000
  0.134405  0.094420  0.000000
  0.136576  0.102222  0.000000
  0.130647  0.108820  0.000000
  0.126733  0.113733  0.000000
  0.123106  0.121912  0.000000
  0.118801  0.132803  0.000000
  0.116270  0.132940  0.000000
  0.272637  0.011466  0.000000
  0.254874  0.011470  0.000000
  0.279014  0.012792  0.000000
  0.262378  0.012187  0.000000
  0.294715  0.013583  0.000000
  0.285917  0.015750  0.000000
  0.280110  0.024594  0.000000
  0.259443  0.026735  0.000000
  0.247811  0.017956  0.000000
  0.251921  0.033584  0.000000
  0.225888  0.039213  0.000000
  0.224251  0.046824  0.000000
  0.218925  0.052886  0.000000
  0.206167  0.038889  0.000000
  0.207942  0.050349  0.000000
  0.180893  0.053366  0.000000
  0.195959  0.047796  0.000000
  0.192343  0.059326  0.000000
  0.185511  0.066176  0.000000
  0.176002  0.072274  0.000000
  0.174636  0.079574  0.000000
  0.161082  0.079188  0.000000
  0.161209  0.086086  0.000000
  0.155325  0.091286  0.000000
  0.155808  0.099737  0.000000
  0.147716  0.105026  0.000000
  0.144702  0.111300  0.000000
  0.138423  0.119984  0.000000
  0.132747  0.126538  0.000000
  0.130590  0.131910  0.000000
  0.331099  0.011062  0.000000
  0.296857  0.010305  0.000000
  0.341695  0.010301  0.000000
  0.309021  0.014038  0.000000
  0.343937  0.029647  0.000000
  0.315079  0.011329  0.000000
  0.341505  0.026591  0.000000
  0.295196  0.027446  0.000000
  0.277262  0.035476  0.000000
  0.266128  0.036485  0.000000
  0.259250  0.041301  0.000000
  0.255097  0.046174  0.000000
  0.215012  0.041138  0.000000
  0.241457  0.036717  0.000000
  0.239638  0.042311  0.000000
  0.235463  0.051810  0.000000
  0.215815  0.063441  0.000000
  0.207472  0.057764  0.000000
  0.208635  0.067924  0.000000
  0.196644  0.062407  0.000000
  0.200714  0.073362  0.000000
  0.189873  0.075355  0.000000
  0.186386  0.080002  0.000000
  0.174923  0.086835  0.000000
  0.173676  0.093456  0.000000
  0.167032  0.100547  0.000000
  0.161586  0.108056  0.000000
  0.157108  0.113503  0.000000
  0.150664  0.122821  0.000000
  0.147047  0.125109  0.000000
  0.372154  0.010683  0.000000
  0.332631  0.016793  0.000000
  0.391486  0.013537  0.000000
  0.360018  0.010779  0.000000
  0.385410  0.011485  0.000000
  0.349805  0.013520  0.000000
  0.361860  0.018442  0.000000
  0.348613  0.020292  0.000000
  0.326043  0.025754  0.000000
  0.315352  0.035621  0.000000
  0.320231  0.015297  0.000000
  0.288651  0.029899  0.000000
  0.285588  0.040964  0.000000
  0.288660  0.053211  0.000000
  0.275435  0.046342  0.000000
  0.255784  0.057488  0.000000
  0.246040  0.049389  0.000000
  0.239117  0.057950  0.000000
  0.239533  0.067214  0.000000
  0.227935  0.060581  0.000000
  0.221067  0.073457  0.000000
  0.215788  0.077396  0.000000
  0.202251  0.080827  0.000000
  0.202717  0.086249  0.000000
  0.192309  0.093583  0.000000
  0.186916  0.096884  0.000000
  0.175473  0.101560  0.000000
  0.172328  0.113384  0.000000
  0.169929  0.125843  0.000000
  0.161464  0.124341  0.000000
  0.440506  0.014291  0.000000
  0.413670  0.011607  0.000000
  0.450828  0.010720  0.000000
  0.425053  0.011914  0.000000
  0.436544  0.010689  0.000000
  0.403058  0.011125  0.000000
  0.401358  0.015602  0.000000
  0.381283  0.022953  0.000000
  0.374509  0.014999  0.000000
  0.363792  0.025624  0.000000
  0.357435  0.037008  0.000000
  0.326786  0.028354  0.000000
  0.310916  0.027928  0.000000
  0.313198  0.044747  0.000000
  0.296699  0.038813  0.000000
  0.293688  0.045161  0.000000
  0.284432  0.058643  0.000000
  0.271264  0.049915  0.000000
  0.276525  0.061352  0.000000
  0.265553  0.055513  0.000000
  0.252789  0.062885  0.000000
  0.253889  0.069987  0.000000
  0.229439  0.067842  0.000000
  0.232071  0.080961  0.000000
  0.219542  0.086735  0.000000
  0.205993  0.093629  0.000000
  0.198735  0.100365  0.000000
  0.193212  0.105874  0.000000
  0.183873  0.112821  0.000000
  0.178363  0.117412  0.000000
  0.537936  0.011935  0.000000
  0.491653  0.014395  0.000000
  0.499635  0.010697  0.000000
  0.472930  0.010979  0.000000
  0.485635  0.011638  0.000000
  0.458045  0.013225  0.000000
  0.437488  0.026064  0.000000
  0.437742  0.024594  0.000000
  0.422146  0.015000  0.000000
  0.404855  0.025432  0.000000
  0.388218  0.024391  0.000000
  0.375083  0.030900  0.000000
  0.363131  0.031597  0.000000
  0.367342  0.045326  0.000000
  0.331437  0.039101  0.000000
  0.332714  0.048365  0.000000
  0.324867  0.040988  0.000000
  0.305551  0.022431  0.000000
  0.304651  0.034097  0.000000
  0.316154  0.050217  0.000000
  0.299775  0.055518  0.000000
  0.282203  0.068302  0.000000
  0.266521  0.065654  0.000000
  0.244524  0.076205  0.000000
  0.238558  0.078127  0.000000
  0.226474  0.086872  0.000000
  0.219109  0.094837  0.000000
  0.212460  0.101299  0.000000
  0.204842  0.115613  0.000000
  0.193074  0.113819  0.000000
  0.581122  0.011522  0.000000
  0.545285  0.013725  0.000000
  0.558603  0.011988  0.000000
  0.528273  0.013961  0.000000
  0.546191  0.028149  0.000000
  0.509523  0.012687  0.000000
  0.484720  0.025061  0.000000
  0.490102  0.034284  0.000000
  0.452419  0.021768  0.000000
  0.471899  0.028282  0.000000
  0.453509  0.034519  0.000000
  0.424746  0.026850  0.000000
  0.409185  0.028385  0.000000
  0.417532  0.039843  0.000000
  0.393091  0.032836  0.000000
  0.376591  0.038485  0.000000
  0.381946  0.051325  0.000000
  0.349187  0.040900  0.000000
  0.352128  0.052766  0.000000
  0.344674  0.040420  0.000000
  0.326611  0.056730  0.000000
  0.308311  0.053082  0.000000
  0.301916  0.062005  0.000000
  0.278185  0.076800  0.000000
  0.266867  0.074405  0.000000
  0.254208  0.082681  0.000000
  0.246622  0.093270  0.000000
  0.234653  0.097947  0.000000
  0.222002  0.107168  0.000000
  0.213866  0.108275  0.000000
  0.629792  0.010833  0.000000
  0.606447  0.016397  0.000000
  0.619698  0.013175  0.000000
  0.597614  0.010113  0.000000
  0.572384  0.027370  0.000000
  0.567473  0.010984  0.000000
  0.521446  0.009958  0.000000
  0.533582  0.038126  0.000000
  0.493465  0.026356  0.000000
  0.509271  0.015235  0.000000
  0.500335  0.028312  0.000000
  0.466672  0.012797  0.000000
  0.477920  0.017183  0.000000
  0.471543  0.029437  0.000000
  0.418962  0.027154  0.000000
  0.434877  0.037218  0.000000
  0.427734  0.037899  0.000000
  0.397425  0.033693  0.000000
  0.396558  0.048052  0.000000
  0.383190  0.038433  0.000000
  0.364152  0.046036  0.000000
  0.339585  0.051832  0.000000
  0.329315  0.062915  0.000000
  0.316200  0.063428  0.000000
  0.295264  0.067406  0.000000
  0.287057  0.077373  0.000000
  0.262641  0.077648  0.000000
  0.252713  0.087941  0.000000
  0.245916  0.105575  0.000000
  0.230592  0.102611  0.000000
  0.653029  0.012100  0.000000
  0.643505  0.010198  0.000000
  0.624347  0.018116  0.000000
  0.631177  0.039498  0.000000
  0.611238  0.011496  0.000000
  0.584776  0.012761  0.000000
  0.606630  0.027045  0.000000
  0.586428  0.026675  0.000000
  0.550451  0.014932  0.000000
  0.568790  0.016571  0.000000
  0.561355  0.023709  0.000000
  0.537529  0.028341  0.000000
  0.517940  0.026291  0.000000
  0.530519  0.019560  0.000000
  0.505963  0.038368  0.000000
  0.480652  0.043413  0.000000
  0.465655  0.040410  0.000000
  0.456254  0.024515  0.000000
  0.449936  0.037835  0.000000
  0.426717  0.052141  0.000000
  0.410918  0.039094  0.000000
  0.390723  0.047124  0.000000
  0.366742  0.057241  0.000000
  0.359957  0.062428  0.000000
  0.341071  0.060387  0.000000
  0.318448  0.069058  0.000000
  0.300342  0.073301  0.000000
  0.281811  0.087389  0.000000
  0.270850  0.094151  0.000000
  0.249095  0.096202  0.000000
  0.672062  0.027118  0.000000
  0.679886  0.036712  0.000000
  0.670557  0.015519  0.000000
  0.656119  0.024914  0.000000
  0.656351  0.047944  0.000000
  0.638694  0.016194  0.000000
  0.642987  0.022455  0.000000
  0.632374  0.026015  0.000000
  0.620261  0.052913  0.000000
  0.619714  0.031652  0.000000
  0.596258  0.016203  0.000000
  0.583785  0.024113  0.000000
  0.578821  0.039509  0.000000
  0.569019  0.033285  0.000000
  0.552079  0.028820  0.000000
  0.548381  0.039015  0.000000
  0.514255  0.039188  0.000000
  0.510373  0.027045  0.000000
  0.487006  0.041725  0.000000
  0.465793  0.037366  0.000000
  0.438596  0.044505  0.000000
  0.433197  0.051709  0.000000
  0.411904  0.047672  0.000000
  0.403747  0.064999  0.000000
  0.371034  0.066808  0.000000
  0.352468  0.058833  0.000000
  0.337893  0.068534  0.000000
  0.312411  0.072623  0.000000
  0.295179  0.086740  0.000000
  0.275830  0.086815  0.000000
  0.688449  0.013084  0.000000
  0.690183  0.075249  0.000000
  0.692559  0.033756  0.000000
  0.682837  0.009636  0.000000
  0.681037  0.023812  0.000000
  0.669116  0.014759  0.000000
  0.659567  0.010425  0.000000
  0.660928  0.028654  0.000000
  0.631900  0.034566  0.000000
  0.632836  0.057943  0.000000
  0.646714  0.042800  0.000000
  0.651840  0.029159  0.000000
  0.644466  0.038009  0.000000
  0.629885  0.053888  0.000000
  0.598649  0.030590  0.000000
  0.592572  0.034518  0.000000
  0.573167  0.042217  0.000000
  0.551796  0.048411  0.000000
  0.531382  0.034881  0.000000
  0.519661  0.048397  0.000000
  0.503769  0.044503  0.000000
  0.490761  0.059345  0.000000
  0.455263  0.054593  0.000000
  0.451944  0.045752  0.000000
  0.418615  0.054955  0.000000
  0.400905  0.049863  0.000000
  0.375362  0.070090  0.000000
  0.347016  0.077933  0.000000
  0.307982  0.083899  0.000000
  0.301866  0.082524  0.000000
  0.683560  0.064837  0.000000
  0.685338  0.039078  0.000000
  0.685922  0.021028  0.000000
  0.668484  0.124094  0.000000
  0.677497  0.138025  0.000000
  0.683536  0.100032  0.000000
  0.689362  0.109561  0.000000
  0.684346  0.055126  0.000000
  0.674036  0.047214  0.000000
  0.677588  0.057507  0.000000
  0.667089  0.049293  0.000000
  0.671211  0.037170  0.000000
  0.658991  0.040293  0.000000
  0.652789  0.062467  0.000000
  0.616900  0.027759  0.000000
  0.636591  0.049358  0.000000
  0.606147  0.035900  0.000000
  0.609649  0.047640  0.000000
  0.580773  0.055350  0.000000
  0.572884  0.052086  0.000000
  0.539336  0.058008  0.000000
  0.522658  0.029018  0.000000
  0.523593  0.054654  0.000000
  0.474161  0.052400  0.000000
  0.460659  0.056362  0.000000
  0.450049  0.055807  0.000000
  0.416572  0.064536  0.000000
  0.378931  0.057334  0.000000
  0.343404  0.078548  0.000000
  0.330342  0.075797  0.000000
  0.637052  0.179857  0.000000
  0.692023  0.057515  0.000000
  0.637130  0.151950  0.000000
  0.688379  0.264998  0.000000
  0.642488  0.157949  0.000000
  0.679645  0.127596  0.000000
  0.677482  0.087092  0.000000
  0.682221  0.083146  0.000000
  0.689292  0.131613  0.000000
  0.680471  0.095158  0.000000
  0.689217  0.119301  0.000000
  0.674126  0.075410  0.000000
  0.666176  0.081336  0.000000
  0.666105  0.076373  0.000000
  0.668751  0.059259  0.000000
  0.659306  0.068729  0.000000
  0.647646  0.055157  0.000000
  0.620067  0.042358  0.000000
  0.593852  0.046256  0.000000
  0.602155  0.046889  0.000000
  0.586146  0.045488  0.000000
  0.559941  0.039370  0.000000
  0.540981  0.044816  0.000000
  0.519556  0.052263  0.000000
  0.498345  0.052317  0.000000
  0.478943  0.052102  0.000000
  0.433450  0.059665  0.000000
  0.405968  0.061932  0.000000
  0.383334  0.066316  0.000000
  0.363986  0.075075  0.000000
 -0.010000  0.500000  0.000000
 -0.010000  0.490000  0.000000
 -0.010000  0.480000  0.000000
 -0.010000  0.470000  0.000000
 -0.010000  0.460000  0.000000
 -0.010000  0.450000  0.000000
 -0.010000  0.440000  0.000000
 -0.010000  0.430000  0.000000
 -0.010000  0.420000  0.000000
 -0.010000  0.410000  0.000000
 -0.010000  0.400000  0.000000
 -0.010000  0.390000  0.000000
 -0.010000  0.380000  0.000000
 -0.010000  0.370000  0.000000
 -0.010000  0.360000  0.000000
 -0.010000  0.350000  0.000000
 -0.010000  0.340000  0.000000
 -0.010000  0.330000  0.000000
 -0.010000  0.320000  0.000000
 -0.010000  0.310000  0.000000
 -0.010000  0.300000  0.000000
 -0.010000  0.290000  0.000000
 -0.010000  0.280000  0.000000
 -0.010000  0.270000  0.000000
 -0.010000  0.260000  0.000000
 -0.010000  0.250000  0.000000
 -0.010000  0.240000  0.000000
 -0.010000  0.230000  0.000000
 -0.010000  0.220000  0.000000
 -0.010000  0.210000  0.000000
 -0.010000  0.200000  0.000000
 -0.010000  0.190000  0.000000
 -0.010000  0.180000  0.000000
 -0.010000  0.170000  0.000000
 -0.010000  0.160000  0.000000
 -0.010000  0.150000  0.000000
 -0.010000  0.140000  0.000000
 -0.010000  0.130000  0.000000
 -0.010000  0.120000  0.000000
 -0.010000  0.110000  0.000000
 -0.010000  0.100000  0.000000
 -0.010000  0.090000  0.000000
 -0.010000  0.080000  0.000000
 -0.010000  0.070000  0.000000
 -0.010000  0.060000  0.000000
 -0.010000  0.050000  0.000000
 -0.010000  0.040000  0.000000
 -0.010000  0.030000  0.000000
 -0.010000  0.020000  0.000000
 -0.010000  0.010000  0.000000
 -0.100000 -0.010000  0.000000
 -0.090000 -0.010000  0.000000
 -0.080000 -0.010000  0.000000
 -0.070000 -0.010000  0.000000
 -0.060000 -0.010000  0.000000
 -0.050000 -0.010000  0.000000
 -0.040000 -0.010000  0.000000
 -0.030000 -0.010000  0.000000