<?xml version="1.0" encoding="UTF-8"?>
<VTKFile type="UnstructuredGrid" version="1.0" byte_order="LittleEndian">
<UnstructuredGrid>
  <Piece NumberOfPoints="1550" NumberOfCells="1550">
      <PointData>
        <DataArray type="Int32" Name="Type" format="ascii">
 1 1 1 1 1 1 1 1 1 1
 1 1 1 1 1 1 1 1 1 1
 1 1 1 1 1 1 1 1 1 1
 1 1 1 1 1 1 1 1 1 1
 1 1 1 1 1 1 1 1 1 1
 1 1 1 1 1 1 1 1 1 1
 1 3 3 3 3 3 3 3 3 3
 3 3 3 3 3 3 3 3 3 3
 3 3 3 3 3 3 3 3 3 3
 3 3 3 3 3 3 3 3 3 3
 3 3 3 3 3 3 3 3 3 3
 3 3 3 3 3 3 3 3 3 3
 3 3 3 3 3 3 3 3 3 3
 1 1 1 1 1 1 1 1 1 1
 1 1 1 1 1 1 1 1 1 1
 1 1 1 1 1 1 1 1 1 1
 1 1 1 1 1 1 1 1 1 1
 1 1 1 1 1 1 1 1 1 1
 1 1 1 1 1 1 1 1 1 1
 1 2 2 2 2 2 2 2 2 2
 2 2 2 2 2 2 2 2 2 2
 2 2 2 2 2 2 2 2 2 2
 2 2 2 2 2 2 2 2 2 2
 2 2 2 2 2 2 2 2 2 2
 2 2 2 2 2 2 2 2 2 2
 2 2 2 2 2 2 2 2 2 2
 2 2 2 2 2 2 2 2 2 2
 2 2 2 2 2 2 2 2 2 2
 2 2 2 2 2 2 2 2 2 2
 2 2 2 2 2 2 2 2 2 2
 2 2 2 2 2 2 2 2 2 2
 2 2 2 2 2 2 2 2 2 2
 2 2 2 2 2 2 2 2 2 2
 2 2 2 2 2 2 2 2 2 2
 2 2 2 2 2 2 2 2 2 2
 2 2 2 2 2 2 2 2 2 2
 2 2 2 2 2 2 2 2 2 2
 2 2 2 2 2 2 2 2 2 2
 2 2 2 2 2 2 2 2 2 2
 2 2 2 2 2 2 2 2 2 2
 2 2 2 2 2 2 2 2 2 2
 2 2 2 2 2 2 2 2 2 2
 2 2 2 2 2 2 2 2 2 2
 2 2 2 2 2 2 2 2 2 2
 2 2 2 2 2 2 2 2 2 2
 2 2 2 2 2 2 2 2 2 2
 2 2 2 2 2 2 2 2 2 2
 2 2 2 2 2 2 2 2 2 2
 2 2 2 2 2 2 2 2 2 2
 2 2 2 2 2 2 2 2 2 2
 2 2 2 2 2 2 2 2 2 2
 2 2 2 2 2 2 2 2 2 2
 2 2 2 2 2 2 2 2 2 2
 2 2 2 2 2 2 2 2 2 2
 2 2 2 2 2 2 2 2 2 2
 2 2 2 2 2 2 2 2 2 2
 2 2 2 2 2 2 2 2 2 2
 2 2 2 2 2 2 2 2 2 2
 2 2 2 2 2 2 2 2 2 2
 2 2 2 2 2 2 2 2 2 2
 2 2 2 2 2 2 2 2 2 2
 2 2 2 2 2 2 2 2 2 2
 2 2 2 2 2 2 2 2 2 2
 2 2 2 2 2 2 2 2 2 2
 2 2 2 2 2 2 2 2 2 2
 2 2 2 2 2 2 2 2 2 2
 2 2 2 2 2 2 2 2 2 2
 2 2 2 2 2 2 2 2 2 2
 2 2 2 2 2 2 2 2 2 2
 2 2 2 2 2 2 2 2 2 2
 2 2 2 2 2 2 2 2 2 2
 2 2 2 2 2 2 2 2 2 2
 2 2 2 2 2 2 2 2 2 2
 2 2 2 2 2 2 2 2 2 2
 2 2 2 2 2 2 2 2 2 2
 2 2 2 2 2 2 2 2 2 2
 2 2 2 2 2 2 2 2 2 2
 2 2 2 2 2 2 2 2 2 2
 2 2 2 2 2 2 0 0 0 0
 0 0 0 0 0 0 0 0 0 0
 0 0 0 0 0 0 0 0 0 0
 0 0 0 0 0 0 0 0 0 0
 0 0 0 0 0 0 0 0 0 0
 0 0 0 0 0 0 0 0 0 0
 0 0 0 0 0 0 0 0 0 0
 0 0 0 0 0 0 0 0 0 0
 0 0 0 0 0 0 0 0 0 0
 0 0 0 0 0 0 0 0 0 0
 0 0 0 0 0 0 0 0 0 0
 0 0 0 0 0 0 0 0 0 0
 0 0 0 0 0 0 0 0 0 0
 0 0 0 0 0 0 0 0 0 0
 0 0 0 0 0 0 0 0 0 0
 0 0 0 0 0 0 0 0 0 0
 0 0 0 0 0 0 0 0 0 0
 0 0 0 0 0 0 0 0 0 0
 0 0 0 0 0 0 0 0 0 0
 0 0 0 0 0 0 0 0 0 0
 0 0 0 0 0 0 0 0 0 0
 0 0 0 0 0 0 0 0 0 0
 0 0 0 0 0 0 0 0 0 0
 0 0 0 0 0 0 0 0 0 0
 0 0 0 0 0 0 0 0 0 0
 0 0 0 0 0 0 0 0 0 0
 0 0 0 0 0 0 0 0 0 0
 0 0 0 0 0 0 0 0 0 0
 0 0 0 0 0 0 0 0 0 0
 0 0 0 0 0 0 0 0 0 0
 0 0 0 0 0 0 0 0 0 0
 0 0 0 0 0 0 0 0 0 0
 0 0 0 0 0 0 0 0 0 0
 0 0 0 0 0 0 0 0 0 0
 0 0 0 0 0 0 0 0 0 0
 0 0 0 0 0 0 0 0 0 0
 0 0 0 0 0 0 0 0 0 0
 0 0 0 0 0 0 0 0 0 0
 0 0 0 0 0 0 0 0 0 0
 0 0 0 0 0 0 0 0 0 0
 0 0 0 0 0 0 0 0 0 0
 0 0 0 0 0 0 0 0 0 0
 0 0 0 0 0 0 0 0 0 0
 0 0 0 0 0 0 0 0 0 0
 0 0 0 0 0 0 0 0 0 0
 0 0 0 0 0 0 0 0 0 0
 0 0 0 0 0 0 0 0 0 0
 0 0 0 0 0 0 0 0 0 0
 0 0 0 0 0 0 0 0 0 0
 0 0 0 0 0 0 0 0 0 0
 0 0 0 0 0 0 0 0 0 0
 0 0 0 0 0 0 0 0 0 0
 0 0 0 0 0 0 0 0 0 0
 0 0 0 0 0 0 0 0 0 0
 0 0 0 0 0 0 0 0 0 0
 0 0 0 0 0 0 0 0 0 0
 0 0 0 0 0 0 0 0 0 0
 0 0 0 0 0 0 0 0 0 0
 0 0 0 0 0 0 0 0 0 0
 0 0 0 0 0 0 0 0 0 0
 0 0 0 0 0 0 0 0 0 0
 0 0 0 0 0 0 0 0 0 0
 0 0 0 0 0 0 0 0 0 0
 0 0 0 0 0 0 0 0 0 0
 0 0 0 0 0 0 0 0 0 0
 0 0 0 0 0 0 0 0 0 0
 0 0 0 0 0 0 0 0 0 0
 0 0 0 0 0 0 0 0 0 0
 0 0 0 0 0 0 0 0 0 0
 0 0 0 0 0 0 0 0 0 0
 0 0 0 0 0 0 0 0 0 0
 0 0 0 0 0 0 0 0 0 0
 0 0 0 0 0 0 0 0 0 0
 0 0 0 0 0 0 0 0 0 0
 0 0 0 0 0 0 0 0 0 0
 0 0 0 0 0 0 0 0 0 0
 0 0 0 0 0 0 0 0 0 0
        </DataArray>
      </PointData>
      <Points>
        <DataArray type="Float32" NumberOfComponents="3" format="ascii">
  0.000000  0.500000  0.000000
  0.000000  0.490000  0.000000
  0.000000  0.480000  0.000000
  0.000000  0.470000  0.000000
  0.000000  0.460000  0.000000
  0.000000  0.450000  0.000000
  0.000000  0.440000  0.000000
  0.000000  0.430000  0.000000
  0.000000  0.420000  0.000000
  0.000000  0.410000  0.000000
  0.000000  0.400000  0.000000
  0.000000  0.390000  0.000000
  0.000000  0.380000  0.000000
  0.000000  0.370000  0.000000
  0.000000  0.360000  0.000000
  0.000000  0.350000  0.000000
  0.000000  0.340000  0.000000
  0.000000  0.330000  0.000000
  0.000000  0.320000  0.000000
  0.000000  0.310000  0.000000
  0.000000  0.300000  0.000000
  0.000000  0.290000  0.000000
  0.000000  0.280000  0.000000
  0.000000  0.270000  0.000000
  0.000000  0.260000  0.000000
  0.000000  0.250000  0.000000
  0.000000  0.240000  0.000000
  0.000000  0.230000  0.000000
  0.000000  0.220000  0.000000
  0.000000  0.210000  0.000000
  0.000000  0.200000  0.000000
  0.000000  0.190000  0.000000
  0.000000  0.180000  0.000000
  0.000000  0.170000  0.000000
  0.000000  0.160000  0.000000
  0.000000  0.150000  0.000000
  0.000000  0.140000  0.000000
  0.000000  0.130000  0.000000
  0.000000  0.120000  0.000000
  0.000000  0.110000  0.000000
  0.000000  0.100000  0.000000
  0.000000  0.090000  0.000000
  0.000000  0.080000  0.000000
  0.000000  0.070000  0.000000
  0.000000  0.060000  0.000000
  0.000000  0.050000  0.000000
  0.000000  0.040000  0.000000
  0.000000  0.030000  0.000000
  0.000000  0.020000  0.000000
  0.000000  0.010000  0.000000
 -0.100000  0.000000  0.000000
 -0.090000  0.000000  0.000000
 -0.080000  0.000000  0.000000
 -0.070000  0.000000  0.000000
 -0.060000  0.000000  0.000000
 -0.050000  0.000000  0.000000
 -0.040000  0.000000  0.000000
 -0.030000  0.000000  0.000000
 -0.020000  0.000000  0.000000
 -0.010000  0.000000  0.000000
 -0.000000  0.000000  0.000000
  0.010000  0.000000  0.000000
  0.020000  0.000000  0.000000
  0.030000  0.000000  0.000000
  0.040000  0.000000  0.000000
  0.050000  0.000000  0.000000
  0.060000  0.000000  0.000000
  0.070000  0.000000  0.000000
  0.080000  0.000000  0.000000
  0.090000  0.000000  0.000000
  0.100000  0.000000  0.000000
  0.110000  0.000000  0.000000
  0.120000  0.000000  0.000000
  0.130000  0.000000  0.000000
  0.140000  0.000000  0.000000
  0.150000  0.000000  0.000000
  0.160000  0.000000  0.000000
  0.170000  0.000000  0.000000
  0.180000  0.000000  0.000000
  0.190000  0.000000  0.000000
  0.200000  0.000000  0.000000
  0.210000  0.000000  0.000000
  0.220000  0.000000  0.000000
  0.230000  0.000000  0.000000
  0.240000  0.000000  0.000000
  0.250000  0.000000  0.000000
  0.260000  0.000000  0.000000
  0.270000  0.000000  0.000000
  0.280000  0.000000  0.000000
  0.290000  0.000000  0.000000
  0.300000  0.000000  0.000000
  0.310000  0.000000  0.000000
  0.320000  0.000000  0.000000
  0.330000  0.000000  0.000000
  0.340000  0.000000  0.000000
  0.350000  0.000000  0.000000
  0.360000  0.000000  0.000000
  0.370000  0.000000  0.000000
  0.380000  0.000000  0.000000
  0.390000  0.000000  0.000000
  0.400000  0.000000  0.000000
  0.410000  0.000000  0.000000
  0.420000  0.000000  0.000000
  0.430000  0.000000  0.000000
  0.440000  0.000000  0.000000
  0.450000  0.000000  0.000000
  0.460000  0.000000  0.000000
  0.470000  0.000000  0.000000
  0.480000  0.000000  0.000000
  0.490000  0.000000  0.000000
  0.500000  0.000000  0.000000
  0.510000  0.000000  0.000000
  0.520000  0.000000  0.000000
  0.530000  0.000000  0.000000
  0.540000  0.000000  0.000000
  0.550000  0.000000  0.000000
  0.560000  0.000000  0.000000
  0.570000  0.000000  0.000000
  0.580000  0.000000  0.000000
  0.590000  0.000000  0.000000
  0.600000  0.000000  0.000000
  0.610000  0.000000  0.000000
  0.620000  0.000000  0.000000
  0.630000  0.000000  0.000000
  0.640000  0.000000  0.000000
  0.650000  0.000000  0.000000
  0.660000  0.000000  0.000000
  0.670000  0.000000  0.000000
  0.680000  0.000000  0.000000
  0.690000  0.000000  0.000000
  0.700000  0.000000  0.000000
  0.710000  0.000000  0.000000
  0.720000  0.000000  0.000000
  0.730000  0.000000  0.000000
  0.740000  0.000000  0.000000
  0.750000  0.000000  0.000000
  0.760000  0.000000  0.000000
  0.770000  0.000000  0.000000
  0.780000  0.000000  0.000000
  0.790000  0.000000  0.000000
  0.800000  0.000000  0.000000
  0.700000  0.010000  0.000000
  0.700000  0.020000  0.000000
  0.700000  0.030000  0.000000
  0.700000  0.040000  0.000000
  0.700000  0.050000  0.000000
  0.700000  0.060000  0.000000
  0.700000  0.070000  0.000000
  0.700000  0.080000  0.000000
  0.700000  0.090000  0.000000
  0.700000  0.100000  0.000000
  0.700000  0.110000  0.000000
  0.700000  0.120000  0.000000
  0.700000  0.130000  0.000000
  0.700000  0.140000  0.000000
  0.700000  0.150000  0.000000
  0.700000  0.160000  0.000000
  0.700000  0.170000  0.000000
  0.700000  0.180000  0.000000
  0.700000  0.190000  0.000000
  0.700000  0.200000  0.000000
  0.700000  0.210000  0.000000
  0.700000  0.220000  0.000000
  0.700000  0.230000  0.000000
  0.700000  0.240000  0.000000
  0.700000  0.250000  0.000000
  0.700000  0.260000  0.000000
  0.700000  0.270000  0.000000
  0.700000  0.280000  0.000000
  0.700000  0.290000  0.000000
  0.700000  0.300000  0.000000
  0.700000  0.310000  0.000000
  0.700000  0.320000  0.000000
  0.700000  0.330000  0.000000
  0.700000  0.340000  0.000000
  0.700000  0.350000  0.000000
  0.700000  0.360000  0.000000
  0.700000  0.370000  0.000000
  0.700000  0.380000  0.000000
  0.700000  0.390000  0.000000
  0.700000  0.400000  0.000000
  0.700000  0.410000  0.000000
  0.700000  0.420000  0.000000
  0.700000  0.430000  0.000000
  0.700000  0.440000  0.000000
  0.700000  0.450000  0.000000
  0.700000  0.460000  0.000000
  0.700000  0.470000  0.000000
  0.700000  0.480000  0.000000
  0.700000  0.490000  0.000000
  0.700000  0.500000  0.000000
  0.020738  0.009962  0.000000
  0.022124  0.018756  0.000000
  0.037616  0.014368  0.000000
  0.010347  0.009744  0.000000
  0.044354  0.023160  0.000000
  0.010338  0.018784  0.000000
  0.048745  0.027257  0.000000
  0.052602  0.013734  0.000000
  0.083922  0.026709  0.000000
  0.056509  0.029740  0.000000
  0.066830  0.032833  0.000000
  0.009708  0.028962  0.000000
  0.017494  0.041594  0.000000
  0.010497  0.038084  0.000000
  0.010656  0.049910  0.000000
  0.024412  0.048936  0.000000
  0.047291  0.055013  0.000000
  0.011808  0.056184  0.000000
  0.036660  0.064684  0.000000
  0.008168  0.067230  0.000000
  0.018981  0.063245  0.000000
  0.014213  0.076903  0.000000
  0.011538  0.080303  0.000000
  0.016092  0.093376  0.000000
  0.010066  0.090984  0.000000
  0.030541  0.091303  0.000000
  0.006493  0.105576  0.000000
  0.021218  0.104790  0.000000
  0.021765  0.096512  0.000000
  0.037284  0.108100  0.000000
  0.047997  0.009014  0.000000
  0.032216  0.008800  0.000000
  0.064660  0.008138  0.000000
  0.060726  0.017432  0.000000
  0.082620  0.010401  0.000000
  0.088496  0.018054  0.000000
  0.104841  0.008686  0.000000
  0.074176  0.011932  0.000000
  0.075673  0.034590  0.000000
  0.066614  0.023247  0.000000
  0.047438  0.042798  0.000000
  0.032682  0.021504  0.000000
  0.070937  0.043384  0.000000
  0.031889  0.030898  0.000000
  0.058152  0.046717  0.000000
  0.025791  0.034919  0.000000
  0.019877  0.026570  0.000000
  0.035870  0.042481  0.000000
  0.061418  0.054963  0.000000
  0.028893  0.050286  0.000000
  0.061116  0.063217  0.000000
  0.042102  0.052328  0.000000
  0.021969  0.067744  0.000000
  0.036346  0.071653  0.000000
  0.027013  0.082277  0.000000
  0.037675  0.090547  0.000000
  0.029214  0.078798  0.000000
  0.043869  0.081112  0.000000
  0.039309  0.099036  0.000000
  0.053180  0.094332  0.000000
  0.127884  0.011653  0.000000
  0.093501  0.009387  0.000000
  0.116843  0.010025  0.000000
  0.099363  0.019561  0.000000
  0.117146  0.016307  0.000000
  0.147254  0.011570  0.000000
  0.166927  0.015273  0.000000
  0.127627  0.029161  0.000000
  0.102189  0.038899  0.000000
  0.075513  0.021207  0.000000
  0.113322  0.026834  0.000000
  0.105738  0.019484  0.000000
  0.083484  0.045943  0.000000
  0.087989  0.066527  0.000000
  0.105899  0.055113  0.000000
  0.041360  0.036220  0.000000
  0.071443  0.050009  0.000000
  0.057385  0.039451  0.000000
  0.051353  0.062593  0.000000
  0.030960  0.060914  0.000000
  0.072625  0.061993  0.000000
  0.069494  0.074223  0.000000
  0.055695  0.071362  0.000000
  0.047459  0.074009  0.000000
  0.063295  0.081769  0.000000
  0.053253  0.083059  0.000000
  0.056911  0.092129  0.000000
  0.067349  0.106316  0.000000
  0.066065  0.098467  0.000000
  0.045986  0.101519  0.000000
  0.167073  0.008981  0.000000
  0.135673  0.008773  0.000000
  0.179660  0.010803  0.000000
  0.139584  0.019249  0.000000
  0.164777  0.037330  0.000000
  0.153973  0.009592  0.000000
  0.155661  0.030904  0.000000
  0.156492  0.020917  0.000000
  0.139533  0.038061  0.000000
  0.091935  0.030034  0.000000
  0.150640  0.036251  0.000000
  0.100165  0.031872  0.000000
  0.126021  0.038942  0.000000
  0.085053  0.038135  0.000000
  0.084686  0.054838  0.000000
  0.128913  0.021501  0.000000
  0.094925  0.045792  0.000000
  0.110496  0.040569  0.000000
  0.095196  0.053079  0.000000
  0.092538  0.065509  0.000000
  0.120405  0.060094  0.000000
  0.077059  0.061551  0.000000
  0.071723  0.075867  0.000000
  0.103222  0.070902  0.000000
  0.088837  0.077075  0.000000
  0.073461  0.092068  0.000000
  0.088225  0.094094  0.000000
  0.076905  0.087996  0.000000
  0.073859  0.102148  0.000000
  0.087696  0.101513  0.000000
  0.202524  0.009612  0.000000
  0.186959  0.009595  0.000000
  0.196295  0.014666  0.000000
  0.180088  0.020359  0.000000
  0.234133  0.013433  0.000000
  0.174097  0.028162  0.000000
  0.166514  0.024191  0.000000
  0.186803  0.024894  0.000000
  0.147747  0.023813  0.000000
  0.195034  0.033866  0.000000
  0.137909  0.029344  0.000000
  0.177010  0.035895  0.000000
  0.165988  0.041978  0.000000
  0.153458  0.047310  0.000000
  0.163184  0.061650  0.000000
  0.116788  0.030978  0.000000
  0.141556  0.044479  0.000000
  0.120699  0.044201  0.000000
  0.133398  0.063409  0.000000
  0.110335  0.050123  0.000000
  0.103897  0.062399  0.000000
  0.122478  0.055390  0.000000
  0.111282  0.073810  0.000000
  0.083493  0.081179  0.000000
  0.115087  0.079846  0.000000
  0.095032  0.083298  0.000000
  0.101112  0.081468  0.000000
  0.114847  0.100042  0.000000
  0.101218  0.093326  0.000000
  0.093824  0.101320  0.000000
  0.237179  0.011879  0.000000
  0.214848  0.012958  0.000000
  0.265623  0.020778  0.000000
  0.233270  0.027787  0.000000
  0.280935  0.012115  0.000000
  0.241645  0.033885  0.000000
  0.256923  0.012826  0.000000
  0.221758  0.009489  0.000000
  0.225652  0.019059  0.000000
  0.247541  0.023358  0.000000
  0.212685  0.025314  0.000000
  0.223447  0.027035  0.000000
  0.208470  0.019063  0.000000
  0.180398  0.044214  0.000000
  0.164588  0.053375  0.000000
  0.178191  0.050222  0.000000
  0.130691  0.048421  0.000000
  0.189457  0.049707  0.000000
  0.138217  0.053634  0.000000
  0.155199  0.050809  0.000000
  0.143274  0.060221  0.000000
  0.150255  0.064671  0.000000
  0.120321  0.069240  0.000000
  0.140584  0.071320  0.000000
  0.136157  0.083123  0.000000
  0.128016  0.070895  0.000000
  0.126259  0.083433  0.000000
  0.124916  0.083987  0.000000
  0.110735  0.090943  0.000000
  0.122584  0.102660  0.000000
  0.299718  0.011513  0.000000
  0.250694  0.010410  0.000000
  0.265531  0.011610  0.000000
  0.246239  0.020352  0.000000
  0.335788  0.022246  0.000000
  0.291975  0.010960  0.000000
  0.312318  0.011432  0.000000
  0.275387  0.011540  0.000000
  0.271476  0.025398  0.000000
  0.262394  0.032094  0.000000
  0.257321  0.030236  0.000000
  0.267145  0.042595  0.000000
  0.229987  0.035902  0.000000
  0.196633  0.021741  0.000000
  0.205984  0.031992  0.000000
  0.189200  0.034913  0.000000
  0.196075  0.046886  0.000000
  0.212801  0.045249  0.000000
  0.183562  0.058978  0.000000
  0.171385  0.060207  0.000000
  0.188553  0.063309  0.000000
  0.167104  0.071023  0.000000
  0.151030  0.070863  0.000000
  0.165859  0.076532  0.000000
  0.149001  0.079445  0.000000
  0.158407  0.083213  0.000000
  0.148883  0.101125  0.000000
  0.144499  0.086472  0.000000
  0.142273  0.096904  0.000000
  0.139436  0.094137  0.000000
  0.326169  0.018045  0.000000
  0.317749  0.012908  0.000000
  0.371988  0.027591  0.000000
  0.329742  0.009156  0.000000
  0.390441  0.027026  0.000000
  0.355350  0.010825  0.000000
  0.351049  0.024991  0.000000
  0.330158  0.029646  0.000000
  0.338386  0.014903  0.000000
  0.317654  0.025179  0.000000
  0.301538  0.018411  0.000000
  0.287162  0.021142  0.000000
  0.285349  0.025866  0.000000
  0.245195  0.038558  0.000000
  0.256673  0.049771  0.000000
  0.216859  0.036412  0.000000
  0.204053  0.039922  0.000000
  0.243355  0.050552  0.000000
  0.222979  0.043507  0.000000
  0.235023  0.044840  0.000000
  0.202256  0.060706  0.000000
  0.203975  0.052665  0.000000
  0.207655  0.064390  0.000000
  0.176432  0.070251  0.000000
  0.192639  0.068025  0.000000
  0.185718  0.077847  0.000000
  0.181723  0.081497  0.000000
  0.169505  0.086619  0.000000
  0.165676  0.094356  0.000000
  0.170068  0.097809  0.000000
  0.397028  0.011070  0.000000
  0.377502  0.010655  0.000000
  0.407529  0.011327  0.000000
  0.379926  0.013740  0.000000
  0.421437  0.026220  0.000000
  0.391304  0.014138  0.000000
  0.408299  0.034982  0.000000
  0.360733  0.016911  0.000000
  0.364550  0.011986  0.000000
  0.359732  0.029667  0.000000
  0.318216  0.035800  0.000000
  0.325085  0.035505  0.000000
  0.307344  0.042160  0.000000
  0.311000  0.024440  0.000000
  0.299891  0.027155  0.000000
  0.255617  0.040498  0.000000
  0.278114  0.030899  0.000000
  0.266100  0.052257  0.000000
  0.278914  0.053738  0.000000
  0.248006  0.053122  0.000000
  0.231715  0.056355  0.000000
  0.224093  0.052624  0.000000
  0.221854  0.064577  0.000000
  0.214406  0.055814  0.000000
  0.221597  0.068060  0.000000
  0.202212  0.075619  0.000000
  0.197486  0.078414  0.000000
  0.193880  0.087926  0.000000
  0.202783  0.092440  0.000000
  0.182802  0.089243  0.000000
  0.477113  0.014244  0.000000
  0.410577  0.019067  0.000000
  0.486627  0.009907  0.000000
  0.452553  0.018287  0.000000
  0.495976  0.027851  0.000000
  0.452953  0.013863  0.000000
  0.488771  0.022230  0.000000
  0.432983  0.024487  0.000000
  0.402956  0.032423  0.000000
  0.373811  0.021818  0.000000
  0.378213  0.032913  0.000000
  0.365539  0.040546  0.000000
  0.300639  0.034316  0.000000
  0.345686  0.012103  0.000000
  0.347542  0.026015  0.000000
  0.341750  0.036300  0.000000
  0.294889  0.046657  0.000000
  0.293284  0.036427  0.000000
  0.290407  0.049163  0.000000
  0.275321  0.042781  0.000000
  0.281487  0.039721  0.000000
  0.259641  0.062800  0.000000
  0.269426  0.059924  0.000000
  0.238673  0.061790  0.000000
  0.256210  0.078318  0.000000
  0.240483  0.073096  0.000000
  0.235637  0.068357  0.000000
  0.220969  0.079312  0.000000
  0.211602  0.075236  0.000000
  0.217549  0.087400  0.000000
  0.512764  0.017285  0.000000
  0.472323  0.029159  0.000000
  0.565633  0.012243  0.000000
  0.502788  0.010731  0.000000
  0.546436  0.010783  0.000000
  0.489800  0.014463  0.000000
  0.521759  0.011050  0.000000
  0.507353  0.012462  0.000000
  0.467445  0.020869  0.000000
  0.434427  0.010569  0.000000
  0.461311  0.010740  0.000000
  0.397701  0.020407  0.000000
  0.415396  0.027966  0.000000
  0.422961  0.043798  0.000000
  0.404843  0.049654  0.000000
  0.359217  0.038108  0.000000
  0.349503  0.042353  0.000000
  0.337162  0.039556  0.000000
  0.333258  0.050710  0.000000
  0.318219  0.052977  0.000000
  0.316135  0.065433  0.000000
  0.302151  0.057890  0.000000
  0.283124  0.057151  0.000000
  0.285162  0.079784  0.000000
  0.253405  0.064740  0.000000
  0.253857  0.072943  0.000000
  0.266008  0.089536  0.000000
  0.234854  0.088472  0.000000
  0.237990  0.079345  0.000000
  0.220668  0.084938  0.000000
  0.616632  0.014620  0.000000
  0.574117  0.012932  0.000000
  0.619701  0.017116  0.000000
  0.599283  0.010638  0.000000
  0.607925  0.010413  0.000000
  0.583399  0.014682  0.000000
  0.556774  0.014020  0.000000
  0.529703  0.012014  0.000000
  0.538056  0.013525  0.000000
  0.518525  0.028851  0.000000
  0.502303  0.024614  0.000000
  0.470378  0.011718  0.000000
  0.460743  0.027594  0.000000
  0.447180  0.028800  0.000000
  0.424299  0.013549  0.000000
  0.414501  0.041453  0.000000
  0.397191  0.045087  0.000000
  0.393877  0.035502  0.000000
  0.392450  0.051107  0.000000
  0.385589  0.049617  0.000000
  0.347722  0.046317  0.000000
  0.366943  0.051930  0.000000
  0.314245  0.043857  0.000000
  0.325430  0.051092  0.000000
  0.306514  0.052371  0.000000
  0.288838  0.064231  0.000000
  0.272268  0.088760  0.000000
  0.273757  0.070254  0.000000
  0.269501  0.071037  0.000000
  0.250982  0.084119  0.000000
  0.671144  0.013292  0.000000
  0.653582  0.047875  0.000000
  0.653963  0.028931  0.000000
  0.640364  0.016984  0.000000
  0.648344  0.033124  0.000000
  0.633638  0.020149  0.000000
  0.604926  0.028345  0.000000
  0.603999  0.025245  0.000000
  0.596269  0.016870  0.000000
  0.567828  0.020840  0.000000
  0.549185  0.019768  0.000000
  0.523840  0.020348  0.000000
  0.509155  0.030118  0.000000
  0.526758  0.044231  0.000000
  0.457802  0.037273  0.000000
  0.469431  0.052595  0.000000
  0.443870  0.023040  0.000000
  0.434977  0.013481  0.000000
  0.416656  0.012291  0.000000
  0.464224  0.043000  0.000000
  0.427175  0.034564  0.000000
  0.407099  0.059707  0.000000
  0.384083  0.032079  0.000000
  0.358239  0.057614  0.000000
  0.352102  0.060507  0.000000
  0.326229  0.063961  0.000000
  0.310720  0.069794  0.000000
  0.297176  0.063303  0.000000
  0.293286  0.073609  0.000000
  0.277267  0.077568  0.000000
  0.678735  0.041221  0.000000
  0.670753  0.040699  0.000000
  0.671085  0.021759  0.000000
  0.659159  0.021551  0.000000
  0.667264  0.108945  0.000000
  0.653195  0.010322  0.000000
  0.643672  0.040000  0.000000
  0.655888  0.052075  0.000000
  0.633254  0.044044  0.000000
  0.646590  0.052234  0.000000
  0.630232  0.029365  0.000000
  0.597794  0.033206  0.000000
  0.576058  0.023642  0.000000
  0.599928  0.053082  0.000000
  0.555642  0.024580  0.000000
  0.539763  0.023445  0.000000
  0.543543  0.055157  0.000000
  0.496015  0.039361  0.000000
  0.516527  0.036865  0.000000
  0.480516  0.027686  0.000000
  0.451790  0.037748  0.000000
  0.434846  0.032241  0.000000
  0.435341  0.055211  0.000000
  0.390690  0.071088  0.000000
  0.381253  0.054530  0.000000
  0.372064  0.068848  0.000000
  0.336425  0.056295  0.000000
  0.331662  0.076900  0.000000
  0.312658  0.073405  0.000000
  0.300943  0.075052  0.000000
  0.689467  0.034117  0.000000
  0.681878  0.116063  0.000000
  0.673960  0.076623  0.000000
  0.688610  0.073690  0.000000
  0.687320  0.109010  0.000000
  0.684157  0.028266  0.000000
  0.665250  0.010966  0.000000
  0.656859  0.087024  0.000000
  0.651546  0.064680  0.000000
  0.663226  0.030988  0.000000
  0.667063  0.069245  0.000000
  0.637252  0.009607  0.000000
  0.651108  0.014402  0.000000
  0.641744  0.027752  0.000000
  0.588480  0.019690  0.000000
  0.613077  0.044599  0.000000
  0.584206  0.035204  0.000000
  0.553637  0.032913  0.000000
  0.553258  0.039365  0.000000
  0.531808  0.026968  0.000000
  0.528742  0.034309  0.000000
  0.486158  0.036697  0.000000
  0.459333  0.070743  0.000000
  0.442517  0.043231  0.000000
  0.420097  0.049156  0.000000
  0.432100  0.062637  0.000000
  0.373025  0.043536  0.000000
  0.369030  0.055883  0.000000
  0.342092  0.059466  0.000000
  0.329720  0.071398  0.000000
  0.689854  0.057007  0.000000
  0.686382  0.012599  0.000000
  0.684789  0.128949  0.000000
  0.687095  0.210625  0.000000
  0.690132  0.020055  0.000000
  0.682812  0.010790  0.000000
  0.666774  0.133752  0.000000
  0.682908  0.138295  0.000000
  0.675489  0.027402  0.000000
  0.688337  0.055688  0.000000
  0.684624  0.096349  0.000000
  0.677301  0.051986  0.000000
  0.677683  0.060588  0.000000
  0.663057  0.107912  0.000000
  0.653672  0.101061  0.000000
  0.647747  0.065094  0.000000
  0.641949  0.065193  0.000000
  0.624251  0.012555  0.000000
  0.614473  0.035487  0.000000
  0.586801  0.043073  0.000000
  0.588777  0.029800  0.000000
  0.539885  0.036533  0.000000
  0.521797  0.051657  0.000000
  0.526645  0.060315  0.000000
  0.474921  0.046798  0.000000
  0.458364  0.059818  0.000000
  0.437173  0.043908  0.000000
  0.401851  0.069442  0.000000
  0.383598  0.062855  0.000000
  0.350330  0.065930  0.000000
  0.674113  0.197930  0.000000
  0.640215  0.247605  0.000000
  0.686970  0.089259  0.000000
  0.663992  0.164689  0.000000
  0.607661  0.291719  0.000000
  0.680554  0.150067  0.000000
  0.686970  0.164223  0.000000
  0.681886  0.182574  0.000000
  0.681290  0.238483  0.000000
  0.667091  0.161905  0.000000
  0.682135  0.073103  0.000000
  0.688599  0.102371  0.000000
  0.670236  0.122771  0.000000
  0.646933  0.119307  0.000000
  0.673030  0.092106  0.000000
  0.673973  0.109375  0.000000
  0.669764  0.077495  0.000000
  0.665819  0.058194  0.000000
  0.652393  0.088665  0.000000
  0.636989  0.046188  0.000000
  0.615894  0.059605  0.000000
  0.600621  0.043291  0.000000
  0.571724  0.031214  0.000000
  0.575828  0.044624  0.000000
  0.511336  0.042271  0.000000
  0.493051  0.062684  0.000000
  0.471430  0.036253  0.000000
  0.458789  0.054143  0.000000
  0.407125  0.056859  0.000000
  0.367883  0.069551  0.000000
  0.676539  0.156754  0.000000
  0.587723  0.360956  0.000000
  0.677680  0.215257  0.000000
  0.684733  0.122420  0.000000
  0.676186  0.227885  0.000000
  0.688160  0.081088  0.000000
  0.686635  0.041113  0.000000
  0.682701  0.195672  0.000000
  0.664841  0.222316  0.000000
  0.689422  0.254857  0.000000
  0.627384  0.209547  0.000000
  0.660814  0.142333  0.000000
  0.635252  0.204364  0.000000
  0.658845  0.192280  0.000000
  0.685722  0.141228  0.000000
  0.667816  0.168413  0.000000
  0.670412  0.141645  0.000000
  0.658055  0.137409  0.000000
  0.667431  0.054566  0.000000
  0.667713  0.124184  0.000000
  0.657163  0.118842  0.000000
  0.644113  0.088464  0.000000
  0.626052  0.052680  0.000000
  0.627008  0.032446  0.000000
  0.586666  0.051536  0.000000
  0.561107  0.036662  0.000000
  0.533161  0.046346  0.000000
  0.494681  0.041389  0.000000
  0.445949  0.051508  0.000000
  0.422693  0.058813  0.000000
  0.590790  0.358694  0.000000
  0.653778  0.327209  0.000000
  0.686482  0.186230  0.000000
  0.558931  0.487711  0.000000
  0.676551  0.400020  0.000000
  0.569183  0.366330  0.000000
  0.651067  0.426118  0.000000
  0.645194  0.247893  0.000000
  0.651631  0.336844  0.000000
  0.630273  0.386986  0.000000
  0.648817  0.311920  0.000000
  0.670569  0.285387  0.000000
  0.673254  0.299861  0.000000
  0.638827  0.222626  0.000000
  0.665911  0.182897  0.000000
  0.660918  0.234813  0.000000
  0.690249  0.177921  0.000000
  0.691263  0.225763  0.000000
  0.645379  0.149541  0.000000
  0.645814  0.161890  0.000000
  0.639406  0.127830  0.000000
  0.665542  0.038634  0.000000
  0.673442  0.096296  0.000000
  0.628803  0.057871  0.000000
  0.631755  0.060266  0.000000
  0.619090  0.035861  0.000000
  0.574025  0.043039  0.000000
  0.542345  0.044898  0.000000
  0.490293  0.052134  0.000000
  0.481577  0.059667  0.000000
  0.600806  0.340508  0.000000
  0.467040  0.483367  0.000000
  0.624526  0.382821  0.000000
  0.648655  0.422401  0.000000
  0.668369  0.473658  0.000000
  0.669653  0.366933  0.000000
  0.566157  0.352967  0.000000
  0.662383  0.328896  0.000000
  0.674085  0.351044  0.000000
  0.673663  0.311787  0.000000
  0.646237  0.238993  0.000000
  0.688513  0.278689  0.000000
  0.637208  0.226909  0.000000
  0.634810  0.205438  0.000000
  0.657562  0.210725  0.000000
  0.661652  0.184507  0.000000
  0.654717  0.178801  0.000000
  0.652919  0.147363  0.000000
  0.655086  0.098376  0.000000
  0.659583  0.078934  0.000000
  0.640975  0.075687  0.000000
  0.609649  0.048787  0.000000
  0.552906  0.050818  0.000000
  0.563419  0.050915  0.000000
  0.494711  0.053708  0.000000
 -0.010000  0.500000  0.000000
 -0.010000  0.490000  0.000000
 -0.010000  0.480000  0.000000
 -0.010000  0.470000  0.000000
 -0.010000  0.460000  0.000000
 -0.010000  0.450000  0.000000
 -0.010000  0.440000  0.000000
 -0.010000  0.430000  0.000000
 -0.010000  0.420000  0.000000
 -0.010000  0.410000  0.000000
 -0.010000  0.400000  0.000000
 -0.010000  0.390000  0.000000
 -0.010000  0.380000  0.000000
 -0.010000  0.370000  0.000000
 -0.010000  0.360000  0.000000
 -0.010000  0.350000  0.000000
 -0.010000  0.340000  0.000000
 -0.010000  0.330000  0.000000
 -0.010000  0.320000  0.000000
 -0.010000  0.310000  0.000000
 -0.010000  0.300000  0.000000
 -0.010000  0.290000  0.000000
 -0.010000  0.280000  0.000000
 -0.010000  0.270000  0.000000
 -0.010000  0.260000  0.000000
 -0.010000  0.250000  0.000000
 -0.010000  0.240000  0.000000
 -0.010000  0.230000  0.000000
 -0.010000  0.220000  0.000000
 -0.010000  0.210000  0.000000
 -0.010000  0.200000  0.000000
 -0.010000  0.190000  0.000000
 -0.010000  0.180000  0.000000
 -0.010000  0.170000  0.000000
 -0.010000  0.160000  0.000000
 -0.010000  0.150000  0.000000
 -0.010000  0.140000  0.000000
 -0.010000  0.130000  0.000000
 -0.010000  0.120000  0.000000
 -0.010000  0.110000  0.000000
 -0.010000  0.100000  0.000000
 -0.010000  0.090000  0.000000
 -0.010000  0.080000  0.000000
 -0.010000  0.070000  0.000000
 -0.010000  0.060000  0.000000
 -0.010000  0.050000  0.000000
 -0.010000  0.040000  0.000000
 -0.010000  0.030000  0.000000
 -0.010000  0.020000  0.000000
 -0.010000  0.010000  0.000000
 -0.100000 -0.010000  0.000000
 -0.090000 -0.010000  0.000000
 -0.080000 -0.010000  0.000000
 -0.070000 -0.010000  0.000000
 -0.060000 -0.010000  0.000000
 -0.050000 -0.010000  0.000000
 -0.040000 -0.010000  0.000000
 -0.030000 -0.010000  0.000000
 -0.020000 -0.010000  0.000000
 -0.010000 -0.010000  0.000000
 -0.000000 -0.010000  0.000000
  0.010000 -0.010000  0.000000
  0.020000 -0.010000  0.000000
  0.030000 -0.010000  0.000000