<?xml version="1.0" encoding="UTF-8"?>
<VTKFile type="UnstructuredGrid" version="1.0" byte_order="LittleEndian">
<UnstructuredGrid>
  <Piece NumberOfPoints="1553" NumberOfCells="1553">
      <PointData>
        <DataArray type="Int32" Name="Type" format="ascii">
 1 1 1 1 1 1 1 1 1 1
 1 1 1 1 1 1 1 1 1 1
 1 1 1 1 1 1 1 1 1 1
 1 1 1 1 1 1 1 1 1 1
 1 1 1 1 1 1 1 1 1 1
 1 1 1 1 1 1 1 1 1 1
 1 3 3 3 3 3 3 3 3 3
 3 3 3 3 3 3 3 3 3 3
 3 3 3 3 3 3 3 3 3 3
 3 3 3 3 3 3 3 3 3 3
 3 3 3 3 3 3 3 3 3 3
 3 3 3 3 3 3 3 3 3 3
 3 3 3 3 3 3 3 3 3 3
 1 1 1 1 1 1 1 1 1 1
 1 1 1 1 1 1 1 1 1 1
 1 1 1 1 1 1 1 1 1 1
 1 1 1 1 1 1 1 1 1 1
 1 1 1 1 1 1 1 1 1 1
 1 1 1 1 1 1 1 1 1 1
 1 2 2 2 2 2 2 2 2 2
 2 2 2 2 2 2 2 2 2 2
 2 2 2 2 2 2 2 2 2 2
 2 2 2 2 2 2 2 2 2 2
 2 2 2 2 2 2 2 2 2 2
 2 2 2 2 2 2 2 2 2 2
 2 2 2 2 2 2 2 2 2 2
 2 2 2 2 2 2 2 2 2 2
 2 2 2 2 2 2 2 2 2 2
 2 2 2 2 2 2 2 2 2 2
 2 2 2 2 2 2 2 2 2 2
 2 2 2 2 2 2 2 2 2 2
 2 2 2 2 2 2 2 2 2 2
 2 2 2 2 2 2 2 2 2 2
 2 2 2 2 2 2 2 2 2 2
 2 2 2 2 2 2 2 2 2 2
 2 2 2 2 2 2 2 2 2 2
 2 2 2 2 2 2 2 2 2 2
 2 2 2 2 2 2 2 2 2 2
 2 2 2 2 2 2 2 2 2 2
 2 2 2 2 2 2 2 2 2 2
 2 2 2 2 2 2 2 2 2 2
 2 2 2 2 2 2 2 2 2 2
 2 2 2 2 2 2 2 2 2 2
 2 2 2 2 2 2 2 2 2 2
 2 2 2 2 2 2 2 2 2 2
 2 2 2 2 2 2 2 2 2 2
 2 2 2 2 2 2 2 2 2 2
 2 2 2 2 2 2 2 2 2 2
 2 2 2 2 2 2 2 2 2 2
 2 2 2 2 2 2 2 2 2 2
 2 2 2 2 2 2 2 2 2 2
 2 2 2 2 2 2 2 2 2 2
 2 2 2 2 2 2 2 2 2 2
 2 2 2 2 2 2 2 2 2 2
 2 2 2 2 2 2 2 2 2 2
 2 2 2 2 2 2 2 2 2 2
 2 2 2 2 2 2 2 2 2 2
 2 2 2 2 2 2 2 2 2 2
 2 2 2 2 2 2 2 2 2 2
 2 2 2 2 2 2 2 2 2 2
 2 2 2 2 2 2 2 2 2 2
 2 2 2 2 2 2 2 2 2 2
 2 2 2 2 2 2 2 2 2 2
 2 2 2 2 2 2 2 2 2 2
 2 2 2 2 2 2 2 2 2 2
 2 2 2 2 2 2 2 2 2 2
 2 2 2 2 2 2 2 2 2 2
 2 2 2 2 2 2 2 2 2 2
 2 2 2 2 2 2 2 2 2 2
 2 2 2 2 2 2 2 2 2 2
 2 2 2 2 2 2 2 2 2 2
 2 2 2 2 2 2 2 2 2 2
 2 2 2 2 2 2 2 2 2 2
 2 2 2 2 2 2 2 2 2 2
 2 2 2 2 2 2 2 2 2 2
 2 2 2 2 2 2 2 2 2 2
 2 2 2 2 2 2 2 2 2 2
 2 2 2 2 2 2 2 2 2 2
 2 2 2 2 2 2 2 2 2 0
 0 0 0 0 0 0 0 0 0 0
 0 0 0 0 0 0 0 0 0 0
 0 0 0 0 0 0 0 0 0 0
 0 0 0 0 0 0 0 0 0 0
 0 0 0 0 0 0 0 0 0 0
 0 0 0 0 0 0 0 0 0 0
 0 0 0 0 0 0 0 0 0 0
 0 0 0 0 0 0 0 0 0 0
 0 0 0 0 0 0 0 0 0 0
 0 0 0 0 0 0 0 0 0 0
 0 0 0 0 0 0 0 0 0 0
 0 0 0 0 0 0 0 0 0 0
 0 0 0 0 0 0 0 0 0 0
 0 0 0 0 0 0 0 0 0 0
 0 0 0 0 0 0 0 0 0 0
 0 0 0 0 0 0 0 0 0 0
 0 0 0 0 0 0 0 0 0 0
 0 0 0 0 0 0 0 0 0 0
 0 0 0 0 0 0 0 0 0 0
 0 0 0 0 0 0 0 0 0 0
 0 0 0 0 0 0 0 0 0 0
 0 0 0 0 0 0 0 0 0 0
 0 0 0 0 0 0 0 0 0 0
 0 0 0 0 0 0 0 0 0 0
 0 0 0 0 0 0 0 0 0 0
 0 0 0 0 0 0 0 0 0 0
 0 0 0 0 0 0 0 0 0 0
 0 0 0 0 0 0 0 0 0 0
 0 0 0 0 0 0 0 0 0 0
 0 0 0 0 0 0 0 0 0 0
 0 0 0 0 0 0 0 0 0 0
 0 0 0 0 0 0 0 0 0 0
 0 0 0 0 0 0 0 0 0 0
 0 0 0 0 0 0 0 0 0 0
 0 0 0 0 0 0 0 0 0 0
 0 0 0 0 0 0 0 0 0 0
 0 0 0 0 0 0 0 0 0 0
 0 0 0 0 0 0 0 0 0 0
 0 0 0 0 0 0 0 0 0 0
 0 0 0 0 0 0 0 0 0 0
 0 0 0 0 0 0 0 0 0 0
 0 0 0 0 0 0 0 0 0 0
 0 0 0 0 0 0 0 0 0 0
 0 0 0 0 0 0 0 0 0 0
 0 0 0 0 0 0 0 0 0 0
 0 0 0 0 0 0 0 0 0 0
 0 0 0 0 0 0 0 0 0 0
 0 0 0 0 0 0 0 0 0 0
 0 0 0 0 0 0 0 0 0 0
 0 0 0 0 0 0 0 0 0 0
 0 0 0 0 0 0 0 0 0 0
 0 0 0 0 0 0 0 0 0 0
 0 0 0 0 0 0 0 0 0 0
 0 0 0 0 0 0 0 0 0 0
 0 0 0 0 0 0 0 0 0 0
 0 0 0 0 0 0 0 0 0 0
 0 0 0 0 0 0 0 0 0 0
 0 0 0 0 0 0 0 0 0 0
 0 0 0 0 0 0 0 0 0 0
 0 0 0 0 0 0 0 0 0 0
 0 0 0 0 0 0 0 0 0 0
 0 0 0 0 0 0 0 0 0 0
 0 0 0 0 0 0 0 0 0 0
 0 0 0 0 0 0 0 0 0 0
 0 0 0 0 0 0 0 0 0 0
 0 0 0 0 0 0 0 0 0 0
 0 0 0 0 0 0 0 0 0 0
 0 0 0 0 0 0 0 0 0 0
 0 0 0 0 0 0 0 0 0 0
 0 0 0 0 0 0 0 0 0 0
 0 0 0 0 0 0 0 0 0 0
 0 0 0 0 0 0 0 0 0 0
 0 0 0 0 0 0 0 0 0 0
 0 0 0 0 0 0 0 0 0 0
 0 0 0 0 0 0 0 0 0 0
 0 0 0 0 0 0 0 0 0 0
 0 0 0
        </DataArray>
      </PointData>
      <Points>
        <DataArray type="Float32" NumberOfComponents="3" format="ascii">
  0.000000  0.500000  0.000000
  0.000000  0.490000  0.000000
  0.000000  0.480000  0.000000
  0.000000  0.470000  0.000000
  0.000000  0.460000  0.000000
  0.000000  0.450000  0.000000
  0.000000  0.440000  0.000000
  0.000000  0.430000  0.000000
  0.000000  0.420000  0.000000
  0.000000  0.410000  0.000000
  0.000000  0.400000  0.000000
  0.000000  0.390000  0.000000
  0.000000  0.380000  0.000000
  0.000000  0.370000  0.000000
  0.000000  0.360000  0.000000
  0.000000  0.350000  0.000000
  0.000000  0.340000  0.000000
  0.000000  0.330000  0.000000
  0.000000  0.320000  0.000000
  0.000000  0.310000  0.000000
  0.000000  0.300000  0.000000
  0.000000  0.290000  0.000000
  0.000000  0.280000  0.000000
  0.000000  0.270000  0.000000
  0.000000  0.260000  0.000000
  0.000000  0.250000  0.000000
  0.000000  0.240000  0.000000
  0.000000  0.230000  0.000000
  0.000000  0.220000  0.000000
  0.000000  0.210000  0.000000
  0.000000  0.200000  0.000000
  0.000000  0.190000  0.000000
  0.000000  0.180000  0.000000
  0.000000  0.170000  0.000000
  0.000000  0.160000  0.000000
  0.000000  0.150000  0.000000
  0.000000  0.140000  0.000000
  0.000000  0.130000  0.000000
  0.000000  0.120000  0.000000
  0.000000  0.110000  0.000000
  0.000000  0.100000  0.000000
  0.000000  0.090000  0.000000
  0.000000  0.080000  0.000000
  0.000000  0.070000  0.000000
  0.000000  0.060000  0.000000
  0.000000  0.050000  0.000000
  0.000000  0.040000  0.000000
  0.000000  0.030000  0.000000
  0.000000  0.020000  0.000000
  0.000000  0.010000  0.000000
 -0.100000  0.000000  0.000000
 -0.090000  0.000000  0.000000
 -0.080000  0.000000  0.000000
 -0.070000  0.000000  0.000000
 -0.060000  0.000000  0.000000
 -0.050000  0.000000  0.000000
 -0.040000  0.000000  0.000000
 -0.030000  0.000000  0.000000
 -0.020000  0.000000  0.000000
 -0.010000  0.000000  0.000000
 -0.000000  0.000000  0.000000
  0.010000  0.000000  0.000000
  0.020000  0.000000  0.000000
  0.030000  0.000000  0.000000
  0.040000  0.000000  0.000000
  0.050000  0.000000  0.000000
  0.060000  0.000000  0.000000
  0.070000  0.000000  0.000000
  0.080000  0.000000  0.000000
  0.090000  0.000000  0.000000
  0.100000  0.000000  0.000000
  0.110000  0.000000  0.000000
  0.120000  0.000000  0.000000
  0.130000  0.000000  0.000000
  0.140000  0.000000  0.000000
  0.150000  0.000000  0.000000
  0.160000  0.000000  0.000000
  0.170000  0.000000  0.000000
  0.180000  0.000000  0.000000
  0.190000  0.000000  0.000000
  0.200000  0.000000  0.000000
  0.210000  0.000000  0.000000
  0.220000  0.000000  0.000000
  0.230000  0.000000  0.000000
  0.240000  0.000000  0.000000
  0.250000  0.000000  0.000000
  0.260000  0.000000  0.000000
  0.270000  0.000000  0.000000
  0.280000  0.000000  0.000000
  0.290000  0.000000  0.000000
  0.300000  0.000000  0.000000
  0.310000  0.000000  0.000000
  0.320000  0.000000  0.000000
  0.330000  0.000000  0.000000
  0.340000  0.000000  0.000000
  0.350000  0.000000  0.000000
  0.360000  0.000000  0.000000
  0.370000  0.000000  0.000000
  0.380000  0.000000  0.000000
  0.390000  0.000000  0.000000
  0.400000  0.000000  0.000000
  0.410000  0.000000  0.000000
  0.420000  0.000000  0.000000
  0.430000  0.000000  0.000000
  0.440000  0.000000  0.000000
  0.450000  0.000000  0.000000
  0.460000  0.000000  0.000000
  0.470000  0.000000  0.000000
  0.480000  0.000000  0.000000
  0.490000  0.000000  0.000000
  0.500000  0.000000  0.000000
  0.510000  0.000000  0.000000
  0.520000  0.000000  0.000000
  0.530000  0.000000  0.000000
  0.540000  0.000000  0.000000
  0.550000  0.000000  0.000000
  0.560000  0.000000  0.000000
  0.570000  0.000000  0.000000
  0.580000  0.000000  0.000000
  0.590000  0.000000  0.000000
  0.600000  0.000000  0.000000
  0.610000  0.000000  0.000000
  0.620000  0.000000  0.000000
  0.630000  0.000000  0.000000
  0.640000  0.000000  0.000000
  0.650000  0.000000  0.000000
  0.660000  0.000000  0.000000
  0.670000  0.000000  0.000000
  0.680000  0.000000  0.000000
  0.690000  0.000000  0.000000
  0.700000  0.000000  0.000000
  0.710000  0.000000  0.000000
  0.720000  0.000000  0.000000
  0.730000  0.000000  0.000000
  0.740000  0.000000  0.000000
  0.750000  0.000000  0.000000
  0.760000  0.000000  0.000000
  0.770000  0.000000  0.000000
  0.780000  0.000000  0.000000
  0.790000  0.000000  0.000000
  0.800000  0.000000  0.000000
  0.700000  0.010000  0.000000
  0.700000  0.020000  0.000000
  0.700000  0.030000  0.000000
  0.700000  0.040000  0.000000
  0.700000  0.050000  0.000000
  0.700000  0.060000  0.000000
  0.700000  0.070000  0.000000
  0.700000  0.080000  0.000000
  0.700000  0.090000  0.000000
  0.700000  0.100000  0.000000
  0.700000  0.110000  0.000000
  0.700000  0.120000  0.000000
  0.700000  0.130000  0.000000
  0.700000  0.140000  0.000000
  0.700000  0.150000  0.000000
  0.700000  0.160000  0.000000
  0.700000  0.170000  0.000000
  0.700000  0.180000  0.000000
  0.700000  0.190000  0.000000
  0.700000  0.200000  0.000000
  0.700000  0.210000  0.000000
  0.700000  0.220000  0.000000
  0.700000  0.230000  0.000000
  0.700000  0.240000  0.000000
  0.700000  0.250000  0.000000
  0.700000  0.260000  0.000000
  0.700000  0.270000  0.000000
  0.700000  0.280000  0.000000
  0.700000  0.290000  0.000000
  0.700000  0.300000  0.000000
  0.700000  0.310000  0.000000
  0.700000  0.320000  0.000000
  0.700000  0.330000  0.000000
  0.700000  0.340000  0.000000
  0.700000  0.350000  0.000000
  0.700000  0.360000  0.000000
  0.700000  0.370000  0.000000
  0.700000  0.380000  0.000000
  0.700000  0.390000  0.000000
  0.700000  0.400000  0.000000
  0.700000  0.410000  0.000000
  0.700000  0.420000  0.000000
  0.700000  0.430000  0.000000
  0.700000  0.440000  0.000000
  0.700000  0.450000  0.000000
  0.700000  0.460000  0.000000
  0.700000  0.470000  0.000000
  0.700000  0.480000  0.000000
  0.700000  0.490000  0.000000
  0.700000  0.500000  0.000000
  0.021161  0.010336  0.000000
  0.020882  0.019941  0.000000
  0.036852  0.013960  0.000000
  0.010482  0.009372  0.000000
  0.039903  0.023786  0.000000
  0.010198  0.018659  0.000000
  0.044652  0.028625  0.000000
  0.050685  0.013935  0.000000
  0.076981  0.027040  0.000000
  0.051995  0.031439  0.000000
  0.062295  0.033360  0.000000
  0.009489  0.028832  0.000000
  0.015962  0.040785  0.000000
  0.009256  0.040993  0.000000
  0.010777  0.053303  0.000000
  0.024390  0.050139  0.000000
  0.044559  0.056687  0.000000
  0.012097  0.057335  0.000000
  0.033332  0.069632  0.000000
  0.008332  0.069576  0.000000
  0.018150  0.066381  0.000000
  0.013160  0.079220  0.000000
  0.010797  0.084871  0.000000
  0.015869  0.096822  0.000000
  0.009597  0.095105  0.000000
  0.028445  0.097626  0.000000
  0.007759  0.109472  0.000000
  0.021209  0.110182  0.000000
  0.020340  0.104231  0.000000
  0.034898  0.112265  0.000000
  0.047088  0.008678  0.000000
  0.030807  0.009560  0.000000
  0.063670  0.009135  0.000000
  0.057522  0.018444  0.000000
  0.079300  0.011771  0.000000
  0.085343  0.017882  0.000000
  0.101490  0.010378  0.000000
  0.070996  0.011238  0.000000
  0.070385  0.036387  0.000000
  0.061567  0.023479  0.000000
  0.046394  0.044237  0.000000
  0.030703  0.022967  0.000000
  0.067952  0.044131  0.000000
  0.030707  0.033411  0.000000
  0.058098  0.049372  0.000000
  0.024520  0.038025  0.000000
  0.018980  0.028354  0.000000
  0.035168  0.047278  0.000000
  0.058551  0.057310  0.000000
  0.027790  0.053579  0.000000
  0.057496  0.067514  0.000000
  0.041528  0.058148  0.000000
  0.021773  0.072115  0.000000
  0.036585  0.075906  0.000000
  0.025063  0.085639  0.000000
  0.036557  0.093997  0.000000
  0.027451  0.084771  0.000000
  0.041606  0.086609  0.000000
  0.036918  0.102734  0.000000
  0.049753  0.100839  0.000000
  0.120398  0.012474  0.000000
  0.089721  0.008575  0.000000
  0.110644  0.009297  0.000000
  0.094787  0.019268  0.000000
  0.113188  0.018900  0.000000
  0.139531  0.012872  0.000000
  0.156574  0.017321  0.000000
  0.121585  0.031947  0.000000
  0.099715  0.041460  0.000000
  0.072643  0.024031  0.000000
  0.106755  0.028502  0.000000
  0.100916  0.021882  0.000000
  0.079450  0.047150  0.000000
  0.082986  0.067880  0.000000
  0.099789  0.057956  0.000000
  0.038798  0.038655  0.000000
  0.067868  0.053100  0.000000
  0.053077  0.041274  0.000000
  0.049115  0.065717  0.000000
  0.029141  0.063598  0.000000
  0.069574  0.063889  0.000000
  0.065911  0.076553  0.000000
  0.054166  0.074932  0.000000
  0.044315  0.078217  0.000000
  0.060974  0.085655  0.000000
  0.051512  0.087407  0.000000
  0.054747  0.094778  0.000000
  0.064228  0.107014  0.000000
  0.061087  0.103605  0.000000
  0.044619  0.107306  0.000000
  0.159698  0.009245  0.000000
  0.129201  0.008494  0.000000
  0.168774  0.012109  0.000000
  0.130897  0.018725  0.000000
  0.155174  0.037866  0.000000
  0.146587  0.008844  0.000000
  0.148220  0.031820  0.000000
  0.148739  0.020373  0.000000
  0.132741  0.039394  0.000000
  0.088240  0.030369  0.000000
  0.143690  0.037153  0.000000
  0.092020  0.034474  0.000000
  0.122459  0.040864  0.000000
  0.082490  0.037919  0.000000
  0.081004  0.055148  0.000000
  0.121154  0.023722  0.000000
  0.089812  0.048105  0.000000
  0.105916  0.043363  0.000000
  0.091004  0.054928  0.000000
  0.087399  0.070007  0.000000
  0.113276  0.062758  0.000000
  0.073817  0.065233  0.000000
  0.068833  0.081313  0.000000
  0.098546  0.071921  0.000000
  0.083757  0.080074  0.000000
  0.071153  0.094538  0.000000
  0.085635  0.095508  0.000000
  0.073891  0.093206  0.000000
  0.071643  0.108310  0.000000
  0.083598  0.106913  0.000000
  0.192402  0.009243  0.000000
  0.177886  0.008682  0.000000
  0.188108  0.014828  0.000000
  0.173632  0.018784  0.000000
  0.222943  0.012932  0.000000
  0.167322  0.027954  0.000000
  0.160236  0.025728  0.000000
  0.179755  0.025058  0.000000
  0.139585  0.024383  0.000000
  0.183778  0.035400  0.000000
  0.132137  0.029533  0.000000
  0.167617  0.035811  0.000000
  0.159690  0.042770  0.000000
  0.145030  0.049629  0.000000
  0.155252  0.062784  0.000000
  0.109067  0.033899  0.000000
  0.137027  0.046727  0.000000
  0.116863  0.045743  0.000000
  0.127663  0.066886  0.000000
  0.107095  0.053231  0.000000
  0.100451  0.066377  0.000000
  0.116273  0.059227  0.000000
  0.105385  0.077307  0.000000
  0.080887  0.082467  0.000000
  0.109341  0.083046  0.000000
  0.092272  0.088637  0.000000
  0.098063  0.085668  0.000000
  0.106792  0.103171  0.000000
  0.095921  0.097268  0.000000
  0.091225  0.107298  0.000000
  0.226761  0.010789  0.000000
  0.204021  0.011569  0.000000
  0.251844  0.020933  0.000000
  0.222084  0.024804  0.000000
  0.269042  0.011899  0.000000
  0.229406  0.033401  0.000000
  0.245542  0.013913  0.000000
  0.208481  0.013506  0.000000
  0.214814  0.020034  0.000000
  0.237201  0.025626  0.000000
  0.202958  0.027836  0.000000
  0.214882  0.030548  0.000000
  0.199424  0.021412  0.000000
  0.171298  0.044775  0.000000
  0.157915  0.052910  0.000000
  0.169001  0.052841  0.000000
  0.125410  0.051985  0.000000
  0.180425  0.052322  0.000000
  0.130072  0.056592  0.000000
  0.147414  0.054889  0.000000
  0.137481  0.063219  0.000000
  0.144081  0.066656  0.000000
  0.117926  0.072761  0.000000
  0.133444  0.074771  0.000000
  0.130921  0.086396  0.000000
  0.122931  0.076630  0.000000
  0.119876  0.088570  0.000000
  0.118467  0.089854  0.000000
  0.108825  0.095230  0.000000
  0.117348  0.107517  0.000000
  0.286217  0.010904  0.000000
  0.239648  0.011039  0.000000
  0.254529  0.009977  0.000000
  0.234197  0.019750  0.000000
  0.321477  0.022623  0.000000
  0.278182  0.012525  0.000000
  0.296095  0.013863  0.000000
  0.263132  0.013900  0.000000
  0.258377  0.025962  0.000000
  0.252617  0.032398  0.000000
  0.242933  0.032721  0.000000
  0.254096  0.043634  0.000000
  0.219790  0.037955  0.000000
  0.187548  0.022770  0.000000
  0.198286  0.034027  0.000000
  0.181079  0.037277  0.000000
  0.186798  0.048549  0.000000
  0.201323  0.048820  0.000000
  0.175622  0.059978  0.000000
  0.163048  0.062549  0.000000
  0.180617  0.066227  0.000000
  0.158768  0.073311  0.000000
  0.145911  0.075195  0.000000
  0.157920  0.080960  0.000000
  0.140413  0.083510  0.000000
  0.153415  0.085832  0.000000
  0.142474  0.101269  0.000000
  0.138086  0.089338  0.000000
  0.136074  0.103906  0.000000
  0.131318  0.100469  0.000000
  0.310814  0.018467  0.000000
  0.302530  0.010221  0.000000
  0.356694  0.028688  0.000000
  0.313695  0.011668  0.000000
  0.372566  0.024911  0.000000
  0.339104  0.012014  0.000000
  0.335178  0.026000  0.000000
  0.313514  0.028851  0.000000
  0.323313  0.014630  0.000000
  0.300796  0.025104  0.000000
  0.286733  0.019787  0.000000
  0.273264  0.022476  0.000000
  0.272013  0.027640  0.000000
  0.233607  0.039919  0.000000
  0.244819  0.051184  0.000000
  0.206607  0.038863  0.000000
  0.194531  0.041694  0.000000
  0.230484  0.050946  0.000000
  0.211659  0.047909  0.000000
  0.221478  0.046058  0.000000
  0.192662  0.063113  0.000000
  0.194915  0.054803  0.000000
  0.197583  0.067952  0.000000
  0.167856  0.071703  0.000000
  0.182468  0.071674  0.000000
  0.177924  0.080284  0.000000
  0.172537  0.084004  0.000000
  0.161013  0.090758  0.000000
  0.159365  0.099148  0.000000
  0.161701  0.099246  0.000000
  0.376478  0.009899  0.000000
  0.359338  0.011052  0.000000
  0.389600  0.012434  0.000000
  0.362821  0.013653  0.000000
  0.402229  0.024785  0.000000
  0.372177  0.016019  0.000000
  0.389355  0.033839  0.000000
  0.344014  0.018149  0.000000
  0.348055  0.011269  0.000000
  0.342574  0.030519  0.000000
  0.306019  0.036790  0.000000
  0.310625  0.036869  0.000000
  0.293705  0.044768  0.000000
  0.295852  0.025176  0.000000
  0.284145  0.031915  0.000000
  0.242881  0.041425  0.000000
  0.264128  0.032848  0.000000
  0.254141  0.051420  0.000000
  0.264129  0.056418  0.000000
  0.236945  0.056892  0.000000
  0.222915  0.059376  0.000000
  0.215134  0.055362  0.000000
  0.212672  0.067169  0.000000
  0.205119  0.061595  0.000000
  0.210633  0.072245  0.000000
  0.193945  0.078452  0.000000
  0.189049  0.082834  0.000000
  0.185257  0.090737  0.000000
  0.190175  0.095368  0.000000
  0.175790  0.094444  0.000000
  0.455558  0.012169  0.000000
  0.393557  0.015636  0.000000
  0.464336  0.011622  0.000000
  0.431368  0.018750  0.000000
  0.473694  0.028600  0.000000
  0.431346  0.010095  0.000000
  0.465732  0.022639  0.000000
  0.411333  0.028277  0.000000
  0.381906  0.033516  0.000000
  0.353824  0.023178  0.000000
  0.359617  0.034867  0.000000
  0.348347  0.040011  0.000000
  0.288957  0.034822  0.000000
  0.328906  0.009811  0.000000
  0.330548  0.027007  0.000000
  0.324939  0.037244  0.000000
  0.283836  0.048515  0.000000
  0.278997  0.039045  0.000000
  0.277036  0.052587  0.000000
  0.264463  0.043138  0.000000
  0.270562  0.044210  0.000000
  0.247942  0.062332  0.000000
  0.257904  0.062455  0.000000
  0.229288  0.064208  0.000000
  0.241881  0.079632  0.000000
  0.229004  0.076283  0.000000
  0.224946  0.073828  0.000000
  0.210820  0.082143  0.000000
  0.202504  0.080022  0.000000
  0.206359  0.092751  0.000000
  0.491820  0.016626  0.000000
  0.453511  0.028174  0.000000
  0.539520  0.010527  0.000000
  0.480127  0.010296  0.000000
  0.523855  0.010276  0.000000
  0.470194  0.013773  0.000000
  0.500414  0.010922  0.000000
  0.483090  0.014217  0.000000
  0.447340  0.023682  0.000000
  0.417180  0.013057  0.000000
  0.440938  0.012598  0.000000
  0.382408  0.022068  0.000000
  0.396321  0.030615  0.000000
  0.401704  0.045929  0.000000
  0.387054  0.049532  0.000000
  0.344361  0.039371  0.000000
  0.332241  0.043520  0.000000
  0.320627  0.042229  0.000000
  0.318461  0.052017  0.000000
  0.304589  0.052757  0.000000
  0.301959  0.066297  0.000000
  0.289017  0.059994  0.000000
  0.271387  0.060983  0.000000
  0.272456  0.079065  0.000000
  0.239393  0.066669  0.000000
  0.245394  0.073616  0.000000
  0.252091  0.090320  0.000000
  0.225270  0.091042  0.000000
  0.227972  0.085876  0.000000
  0.211482  0.089147  0.000000
  0.596935  0.015826  0.000000
  0.556979  0.009596  0.000000
  0.598160  0.017948  0.000000
  0.575881  0.011800  0.000000
  0.585798  0.012506  0.000000
  0.558701  0.014942  0.000000
  0.535537  0.013319  0.000000
  0.504856  0.012317  0.000000
  0.515955  0.012915  0.000000
  0.496311  0.029107  0.000000
  0.480912  0.027165  0.000000
  0.448583  0.012438  0.000000
  0.439697  0.026061  0.000000
  0.426166  0.030331  0.000000
  0.407854  0.016278  0.000000
  0.397039  0.041516  0.000000
  0.379451  0.047321  0.000000
  0.375418  0.036050  0.000000
  0.375461  0.051956  0.000000
  0.366492  0.050303  0.000000
  0.332389  0.047509  0.000000
  0.349658  0.054722  0.000000
  0.299332  0.046506  0.000000
  0.311871  0.053915  0.000000
  0.292902  0.057763  0.000000
  0.275159  0.066997  0.000000
  0.261309  0.091063  0.000000
  0.262916  0.070933  0.000000
  0.255839  0.074454  0.000000
  0.238213  0.086722  0.000000
  0.665119  0.010838  0.000000
  0.643938  0.035070  0.000000
  0.640443  0.022566  0.000000
  0.627230  0.013679  0.000000
  0.635419  0.025699  0.000000
  0.611661  0.017776  0.000000
  0.580519  0.027113  0.000000
  0.586296  0.021567  0.000000
  0.572857  0.013536  0.000000
  0.544996  0.021831  0.000000
  0.522766  0.020306  0.000000
  0.501617  0.021813  0.000000
  0.486502  0.027112  0.000000
  0.503837  0.042117  0.000000
  0.441185  0.036792  0.000000
  0.447636  0.051509  0.000000
  0.427055  0.024543  0.000000
  0.415897  0.011385  0.000000
  0.399747  0.010823  0.000000
  0.443015  0.044177  0.000000
  0.408305  0.035893  0.000000
  0.389102  0.061409  0.000000
  0.366086  0.037351  0.000000
  0.339383  0.055659  0.000000
  0.333677  0.063026  0.000000
  0.310991  0.067051  0.000000
  0.297026  0.072487  0.000000
  0.283903  0.067923  0.000000
  0.278623  0.078650  0.000000
  0.264648  0.081712  0.000000
  0.675568  0.032418  0.000000
  0.664278  0.030116  0.000000
  0.666458  0.017264  0.000000
  0.653570  0.015404  0.000000
  0.665735  0.089459  0.000000
  0.642855  0.011227  0.000000
  0.628322  0.032035  0.000000
  0.640866  0.041301  0.000000
  0.612834  0.037063  0.000000
  0.628778  0.041237  0.000000
  0.613416  0.025969  0.000000
  0.574528  0.030351  0.000000
  0.550970  0.023616  0.000000
  0.574463  0.049158  0.000000
  0.533831  0.021042  0.000000
  0.517598  0.024242  0.000000
  0.520740  0.052427  0.000000
  0.474023  0.041401  0.000000
  0.489846  0.038185  0.000000
  0.460077  0.029638  0.000000
  0.430802  0.038874  0.000000
  0.416167  0.034100  0.000000
  0.416739  0.053787  0.000000
  0.376209  0.070245  0.000000
  0.364971  0.055901  0.000000
  0.353588  0.068526  0.000000
  0.321756  0.060097  0.000000
  0.315853  0.078710  0.000000
  0.299830  0.077155  0.000000
  0.287481  0.079821  0.000000
  0.687053  0.031870  0.000000
  0.688709  0.093375  0.000000
  0.674671  0.061136  0.000000
  0.686965  0.053277  0.000000
  0.681188  0.086982  0.000000
  0.678720  0.019166  0.000000
  0.654168  0.012651  0.000000
  0.654783  0.068092  0.000000
  0.641492  0.050891  0.000000
  0.652501  0.030510  0.000000
  0.652448  0.052819  0.000000
  0.620636  0.012944  0.000000
  0.635817  0.012217  0.000000
  0.624268  0.023263  0.000000
  0.565326  0.019813  0.000000
  0.590518  0.039465  0.000000
  0.561817  0.033847  0.000000
  0.531075  0.032487  0.000000
  0.531010  0.041385  0.000000
  0.510834  0.029391  0.000000
  0.504786  0.035456  0.000000
  0.466128  0.037071  0.000000
  0.440019  0.066758  0.000000
  0.423562  0.045125  0.000000
  0.399733  0.052283  0.000000
  0.409485  0.062170  0.000000
  0.356437  0.047787  0.000000
  0.351477  0.059516  0.000000
  0.326414  0.066693  0.000000
  0.313182  0.073019  0.000000
  0.689269  0.046416  0.000000
  0.686396  0.013767  0.000000
  0.686124  0.104930  0.000000
  0.686985  0.178491  0.000000
  0.689302  0.014992  0.000000
  0.676292  0.010270  0.000000
  0.668414  0.106366  0.000000
  0.681300  0.110992  0.000000
  0.669719  0.027968  0.000000
  0.680857  0.042458  0.000000
  0.678333  0.075512  0.000000
  0.671754  0.043345  0.000000
  0.667342  0.048845  0.000000
  0.662382  0.081002  0.000000
  0.649594  0.078918  0.000000
  0.633931  0.053963  0.000000
  0.624818  0.047902  0.000000
  0.608428  0.008830  0.000000
  0.594924  0.032322  0.000000
  0.564059  0.044439  0.000000
  0.563616  0.028890  0.000000
  0.518306  0.035027  0.000000
  0.497579  0.052581  0.000000
  0.501402  0.063420  0.000000
  0.458965  0.045546  0.000000
  0.437294  0.061219  0.000000
  0.416998  0.047551  0.000000
  0.386452  0.069460  0.000000
  0.367136  0.065120  0.000000
  0.333992  0.070251  0.000000
  0.677801  0.169079  0.000000
  0.649451  0.219845  0.000000
  0.688116  0.070467  0.000000
  0.671579  0.136409  0.000000
  0.616959  0.260306  0.000000
  0.687498  0.120023  0.000000
  0.688375  0.138399  0.000000
  0.677916  0.157653  0.000000
  0.688194  0.210746  0.000000
  0.670426  0.137679  0.000000
  0.677314  0.056414  0.000000
  0.686870  0.075694  0.000000
  0.666749  0.103316  0.000000
  0.652726  0.101867  0.000000
  0.668010  0.067515  0.000000
  0.672482  0.087302  0.000000
  0.660894  0.061042  0.000000
  0.651999  0.046115  0.000000
  0.639851  0.067533  0.000000
  0.619061  0.038967  0.000000
  0.594821  0.053073  0.000000
  0.577582  0.038193  0.000000
  0.549508  0.030190  0.000000
  0.551088  0.047522  0.000000
  0.488542  0.046475  0.000000
  0.473943  0.060820  0.000000
  0.452111  0.040508  0.000000
  0.436901  0.059573  0.000000
  0.389479  0.061038  0.000000
  0.354145  0.071631  0.000000
  0.683753  0.130125  0.000000
  0.603309  0.326056  0.000000
  0.681962  0.192472  0.000000
  0.683812  0.097889  0.000000
  0.680903  0.197481  0.000000
  0.688438  0.062076  0.000000
  0.688738  0.032636  0.000000
  0.685088  0.169506  0.000000
  0.665366  0.194663  0.000000
  0.691091  0.225252  0.000000
  0.640709  0.187400  0.000000
  0.665077  0.122048  0.000000
  0.646361  0.174640  0.000000
  0.662202  0.171205  0.000000
  0.687410  0.118383  0.000000
  0.668516  0.141495  0.000000
  0.669337  0.119803  0.000000
  0.659141  0.114664  0.000000
  0.661654  0.045837  0.000000
  0.659653  0.101138  0.000000
  0.649172  0.090587  0.000000
  0.636512  0.068794  0.000000
  0.603628  0.047712  0.000000
  0.604700  0.026709  0.000000
  0.560896  0.050024  0.000000
  0.540754  0.037480  0.000000
  0.510673  0.049190  0.000000
  0.473496  0.045767  0.000000
  0.425582  0.055590  0.000000
  0.405537  0.061141  0.000000
  0.603718  0.321895  0.000000
  0.661234  0.289554  0.000000
  0.687487  0.159236  0.000000
  0.574489  0.441607  0.000000
  0.676688  0.368345  0.000000
  0.585406  0.334006  0.000000
  0.656510  0.386704  0.000000
  0.653827  0.222996  0.000000
  0.658335  0.298279  0.000000
  0.641408  0.343027  0.000000
  0.653556  0.273348  0.000000
  0.674415  0.248955  0.000000
  0.677463  0.264895  0.000000
  0.643261  0.204747  0.000000
  0.667499  0.153041  0.000000
  0.667739  0.207099  0.000000
  0.687257  0.150907  0.000000
  0.689263  0.202638  0.000000
  0.649397  0.135193  0.000000
  0.647419  0.141641  0.000000
  0.642541  0.104309  0.000000
  0.654145  0.031162  0.000000
  0.667869  0.074944  0.000000
  0.606463  0.051756  0.000000
  0.611890  0.048419  0.000000
  0.598327  0.035292  0.000000
  0.551387  0.044067  0.000000
  0.518731  0.044048  0.000000
  0.468862  0.056881  0.000000
  0.459822  0.061709  0.000000
  0.523694  0.471007  0.000000
  0.615236  0.304749  0.000000
  0.491195  0.441836  0.000000
  0.561287  0.494066  0.000000
  0.632056  0.346260  0.000000
  0.656099  0.379289  0.000000
  0.671644  0.430533  0.000000
  0.671225  0.333773  0.000000
  0.640106  0.471984  0.000000
  0.588938  0.318602  0.000000
  0.663118  0.299150  0.000000
  0.676285  0.316688  0.000000
  0.676099  0.280900  0.000000
  0.650197  0.219460  0.000000
  0.692017  0.251310  0.000000
  0.642907  0.198643  0.000000
  0.640763  0.179201  0.000000
  0.660385  0.181093  0.000000
  0.664986  0.156951  0.000000
  0.655352  0.149440  0.000000
  0.655064  0.122206  0.000000
  0.651767  0.080261  0.000000
  0.650115  0.062328  0.000000
  0.630569  0.057811  0.000000
  0.584997  0.046699  0.000000
  0.530913  0.053019  0.000000
  0.539801  0.050797  0.000000
  0.476341  0.055276  0.000000
 -0.010000  0.500000  0.000000
 -0.010000  0.490000  0.000000
 -0.010000  0.480000  0.000000
 -0.010000  0.470000  0.000000
 -0.010000  0.460000  0.000000
 -0.010000  0.450000  0.000000
 -0.010000  0.440000  0.000000
 -0.010000  0.430000  0.000000
 -0.010000  0.420000  0.000000
 -0.010000  0.410000  0.000000
 -0.010000  0.400000  0.000000
 -0.010000  0.390000  0.000000
 -0.010000  0.380000  0.000000
 -0.010000  0.370000  0.000000
 -0.010000  0.360000  0.000000
 -0.010000  0.350000  0.000000
 -0.010000  0.340000  0.000000
 -0.010000  0.330000  0.000000
 -0.010000  0.320000  0.000000
 -0.010000  0.310000  0.000000
 -0.010000  0.300000  0.000000
 -0.010000  0.290000  0.000000
 -0.010000  0.280000  0.000000
 -0.010000  0.270000  0.000000
 -0.010000  0.260000  0.000000
 -0.010000  0.250000  0.000000
 -0.010000  0.240000  0.000000
 -0.010000  0.230000  0.000000
 -0.010000  0.220000  0.000000
 -0.010000  0.210000  0.000000
 -0.010000  0.200000  0.000000
 -0.010000  0.190000  0.000000
 -0.010000  0.180000  0.000000
 -0.010000  0.170000  0.000000
 -0.010000  0.160000  0.000000
 -0.010000  0.150000  0.000000
 -0.010000  0.140000  0.000000
 -0.010000  0.130000  0.000000
 -0.010000  0.120000  0.000000
 -0.010000  0.110000  0.000000
 -0.010000  0.100000  0.000000
 -0.010000  0.090000  0.000000
 -0.010000  0.080000  0.000000
 -0.010000  0.070000  0.000000
 -0.010000  0.060000  0.000000
 -0.010000  0.050000  0.000000
 -0.010000  0.040000  0.000000
 -0.010000  0.030000  0.000000
 -0.010000  0.020000  0.000000
 -0.010000  0.010000  0.000000
 -0.100000 -0.010000  0.000000
 -0.090000 -0.010000  0.000000
 -0.080000 -0.010000  0.000000
 -0.070000 -0.010000  0.000000
 -0.060000 -0.010000  0.000000
 -0.050000 -0.010000  0.000000
 -0.040000 -0.010000  0.000000
 -0.030000 -0.010000  0.000000
 -0.020000 -0.010000  0.000000
 -0.010000 -0.010000  0.000000