<?xml version="1.0" encoding="UTF-8"?>
<VTKFile type="UnstructuredGrid" version="1.0" byte_order="LittleEndian">
<UnstructuredGrid>
  <Piece NumberOfPoints="1545" NumberOfCells="1545">
      <PointData>
        <DataArray type="Int32" Name="Type" format="ascii">
 1 1 1 1 1 1 1 1 1 1
 1 1 1 1 1 1 1 1 1 1
 1 1 1 1 1 1 1 1 1 1
 1 1 1 1 1 1 1 1 1 1
 1 1 1 1 1 1 1 1 1 1
 1 1 1 1 1 1 1 1 1 1
 1 3 3 3 3 3 3 3 3 3
 3 3 3 3 3 3 3 3 3 3
 3 3 3 3 3 3 3 3 3 3
 3 3 3 3 3 3 3 3 3 3
 3 3 3 3 3 3 3 3 3 3
 3 3 3 3 3 3 3 3 3 3
 3 3 3 3 3 3 3 3 3 3
 1 1 1 1 1 1 1 1 1 1
 1 1 1 1 1 1 1 1 1 1
 1 1 1 1 1 1 1 1 1 1
 1 1 1 1 1 1 1 1 1 1
 1 1 1 1 1 1 1 1 1 1
 1 1 1 1 1 1 1 1 1 1
 1 2 2 2 2 2 2 2 2 2
 2 2 2 2 2 2 2 2 2 2
 2 2 2 2 2 2 2 2 2 2
 2 2 2 2 2 2 2 2 2 2
 2 2 2 2 2 2 2 2 2 2
 2 2 2 2 2 2 2 2 2 2
 2 2 2 2 2 2 2 2 2 2
 2 2 2 2 2 2 2 2 2 2
 2 2 2 2 2 2 2 2 2 2
 2 2 2 2 2 2 2 2 2 2
 2 2 2 2 2 2 2 2 2 2
 2 2 2 2 2 2 2 2 2 2
 2 2 2 2 2 2 2 2 2 2
 2 2 2 2 2 2 2 2 2 2
 2 2 2 2 2 2 2 2 2 2
 2 2 2 2 2 2 2 2 2 2
 2 2 2 2 2 2 2 2 2 2
 2 2 2 2 2 2 2 2 2 2
 2 2 2 2 2 2 2 2 2 2
 2 2 2 2 2 2 2 2 2 2
 2 2 2 2 2 2 2 2 2 2
 2 2 2 2 2 2 2 2 2 2
 2 2 2 2 2 2 2 2 2 2
 2 2 2 2 2 2 2 2 2 2
 2 2 2 2 2 2 2 2 2 2
 2 2 2 2 2 2 2 2 2 2
 2 2 2 2 2 2 2 2 2 2
 2 2 2 2 2 2 2 2 2 2
 2 2 2 2 2 2 2 2 2 2
 2 2 2 2 2 2 2 2 2 2
 2 2 2 2 2 2 2 2 2 2
 2 2 2 2 2 2 2 2 2 2
 2 2 2 2 2 2 2 2 2 2
 2 2 2 2 2 2 2 2 2 2
 2 2 2 2 2 2 2 2 2 2
 2 2 2 2 2 2 2 2 2 2
 2 2 2 2 2 2 2 2 2 2
 2 2 2 2 2 2 2 2 2 2
 2 2 2 2 2 2 2 2 2 2
 2 2 2 2 2 2 2 2 2 2
 2 2 2 2 2 2 2 2 2 2
 2 2 2 2 2 2 2 2 2 2
 2 2 2 2 2 2 2 2 2 2
 2 2 2 2 2 2 2 2 2 2
 2 2 2 2 2 2 2 2 2 2
 2 2 2 2 2 2 2 2 2 2
 2 2 2 2 2 2 2 2 2 2
 2 2 2 2 2 2 2 2 2 2
 2 2 2 2 2 2 2 2 2 2
 2 2 2 2 2 2 2 2 2 2
 2 2 2 2 2 2 2 2 2 2
 2 2 2 2 2 2 2 2 2 2
 2 2 2 2 2 2 2 2 2 2
 2 2 2 2 2 2 2 2 2 2
 2 2 2 2 2 2 2 2 2 2
 2 2 2 2 2 2 2 2 2 2
 2 2 2 2 2 2 2 2 2 2
 2 2 2 2 2 2 2 2 2 2
 2 2 2 2 2 2 2 2 2 2
 2 0 0 0 0 0 0 0 0 0
 0 0 0 0 0 0 0 0 0 0
 0 0 0 0 0 0 0 0 0 0
 0 0 0 0 0 0 0 0 0 0
 0 0 0 0 0 0 0 0 0 0
 0 0 0 0 0 0 0 0 0 0
 0 0 0 0 0 0 0 0 0 0
 0 0 0 0 0 0 0 0 0 0
 0 0 0 0 0 0 0 0 0 0
 0 0 0 0 0 0 0 0 0 0
 0 0 0 0 0 0 0 0 0 0
 0 0 0 0 0 0 0 0 0 0
 0 0 0 0 0 0 0 0 0 0
 0 0 0 0 0 0 0 0 0 0
 0 0 0 0 0 0 0 0 0 0
 0 0 0 0 0 0 0 0 0 0
 0 0 0 0 0 0 0 0 0 0
 0 0 0 0 0 0 0 0 0 0
 0 0 0 0 0 0 0 0 0 0
 0 0 0 0 0 0 0 0 0 0
 0 0 0 0 0 0 0 0 0 0
 0 0 0 0 0 0 0 0 0 0
 0 0 0 0 0 0 0 0 0 0
 0 0 0 0 0 0 0 0 0 0
 0 0 0 0 0 0 0 0 0 0
 0 0 0 0 0 0 0 0 0 0
 0 0 0 0 0 0 0 0 0 0
 0 0 0 0 0 0 0 0 0 0
 0 0 0 0 0 0 0 0 0 0
 0 0 0 0 0 0 0 0 0 0
 0 0 0 0 0 0 0 0 0 0
 0 0 0 0 0 0 0 0 0 0
 0 0 0 0 0 0 0 0 0 0
 0 0 0 0 0 0 0 0 0 0
 0 0 0 0 0 0 0 0 0 0
 0 0 0 0 0 0 0 0 0 0
 0 0 0 0 0 0 0 0 0 0
 0 0 0 0 0 0 0 0 0 0
 0 0 0 0 0 0 0 0 0 0
 0 0 0 0 0 0 0 0 0 0
 0 0 0 0 0 0 0 0 0 0
 0 0 0 0 0 0 0 0 0 0
 0 0 0 0 0 0 0 0 0 0
 0 0 0 0 0 0 0 0 0 0
 0 0 0 0 0 0 0 0 0 0
 0 0 0 0 0 0 0 0 0 0
 0 0 0 0 0 0 0 0 0 0
 0 0 0 0 0 0 0 0 0 0
 0 0 0 0 0 0 0 0 0 0
 0 0 0 0 0 0 0 0 0 0
 0 0 0 0 0 0 0 0 0 0
 0 0 0 0 0 0 0 0 0 0
 0 0 0 0 0 0 0 0 0 0
 0 0 0 0 0 0 0 0 0 0
 0 0 0 0 0 0 0 0 0 0
 0 0 0 0 0 0 0 0 0 0
 0 0 0 0 0 0 0 0 0 0
 0 0 0 0 0 0 0 0 0 0
 0 0 0 0 0 0 0 0 0 0
 0 0 0 0 0 0 0 0 0 0
 0 0 0 0 0 0 0 0 0 0
 0 0 0 0 0 0 0 0 0 0
 0 0 0 0 0 0 0 0 0 0
 0 0 0 0 0 0 0 0 0 0
 0 0 0 0 0 0 0 0 0 0
 0 0 0 0 0 0 0 0 0 0
 0 0 0 0 0 0 0 0 0 0
 0 0 0 0 0 0 0 0 0 0
 0 0 0 0 0 0 0 0 0 0
 0 0 0 0 0 0 0 0 0 0
 0 0 0 0 0 0 0 0 0 0
 0 0 0 0 0 0 0 0 0 0
 0 0 0 0 0 0 0 0 0 0
 0 0 0 0 0 0 0 0 0 0
 0 0 0 0 0 0 0 0 0 0
 0 0 0 0 0 0 0 0 0 0
 0 0 0 0 0
        </DataArray>
      </PointData>
      <Points>
        <DataArray type="Float32" NumberOfComponents="3" format="ascii">
  0.000000  0.500000  0.000000
  0.000000  0.490000  0.000000
  0.000000  0.480000  0.000000
  0.000000  0.470000  0.000000
  0.000000  0.460000  0.000000
  0.000000  0.450000  0.000000
  0.000000  0.440000  0.000000
  0.000000  0.430000  0.000000
  0.000000  0.420000  0.000000
  0.000000  0.410000  0.000000
  0.000000  0.400000  0.000000
  0.000000  0.390000  0.000000
  0.000000  0.380000  0.000000
  0.000000  0.370000  0.000000
  0.000000  0.360000  0.000000
  0.000000  0.350000  0.000000
  0.000000  0.340000  0.000000
  0.000000  0.330000  0.000000
  0.000000  0.320000  0.000000
  0.000000  0.310000  0.000000
  0.000000  0.300000  0.000000
  0.000000  0.290000  0.000000
  0.000000  0.280000  0.000000
  0.000000  0.270000  0.000000
  0.000000  0.260000  0.000000
  0.000000  0.250000  0.000000
  0.000000  0.240000  0.000000
  0.000000  0.230000  0.000000
  0.000000  0.220000  0.000000
  0.000000  0.210000  0.000000
  0.000000  0.200000  0.000000
  0.000000  0.190000  0.000000
  0.000000  0.180000  0.000000
  0.000000  0.170000  0.000000
  0.000000  0.160000  0.000000
  0.000000  0.150000  0.000000
  0.000000  0.140000  0.000000
  0.000000  0.130000  0.000000
  0.000000  0.120000  0.000000
  0.000000  0.110000  0.000000
  0.000000  0.100000  0.000000
  0.000000  0.090000  0.000000
  0.000000  0.080000  0.000000
  0.000000  0.070000  0.000000
  0.000000  0.060000  0.000000
  0.000000  0.050000  0.000000
  0.000000  0.040000  0.000000
  0.000000  0.030000  0.000000
  0.000000  0.020000  0.000000
  0.000000  0.010000  0.000000
 -0.100000  0.000000  0.000000
 -0.090000  0.000000  0.000000
 -0.080000  0.000000  0.000000
 -0.070000  0.000000  0.000000
 -0.060000  0.000000  0.000000
 -0.050000  0.000000  0.000000
 -0.040000  0.000000  0.000000
 -0.030000  0.000000  0.000000
 -0.020000  0.000000  0.000000
 -0.010000  0.000000  0.000000
 -0.000000  0.000000  0.000000
  0.010000  0.000000  0.000000
  0.020000  0.000000  0.000000
  0.030000  0.000000  0.000000
  0.040000  0.000000  0.000000
  0.050000  0.000000  0.000000
  0.060000  0.000000  0.000000
  0.070000  0.000000  0.000000
  0.080000  0.000000  0.000000
  0.090000  0.000000  0.000000
  0.100000  0.000000  0.000000
  0.110000  0.000000  0.000000
  0.120000  0.000000  0.000000
  0.130000  0.000000  0.000000
  0.140000  0.000000  0.000000
  0.150000  0.000000  0.000000
  0.160000  0.000000  0.000000
  0.170000  0.000000  0.000000
  0.180000  0.000000  0.000000
  0.190000  0.000000  0.000000
  0.200000  0.000000  0.000000
  0.210000  0.000000  0.000000
  0.220000  0.000000  0.000000
  0.230000  0.000000  0.000000
  0.240000  0.000000  0.000000
  0.250000  0.000000  0.000000
  0.260000  0.000000  0.000000
  0.270000  0.000000  0.000000
  0.280000  0.000000  0.000000
  0.290000  0.000000  0.000000
  0.300000  0.000000  0.000000
  0.310000  0.000000  0.000000
  0.320000  0.000000  0.000000
  0.330000  0.000000  0.000000
  0.340000  0.000000  0.000000
  0.350000  0.000000  0.000000
  0.360000  0.000000  0.000000
  0.370000  0.000000  0.000000
  0.380000  0.000000  0.000000
  0.390000  0.000000  0.000000
  0.400000  0.000000  0.000000
  0.410000  0.000000  0.000000
  0.420000  0.000000  0.000000
  0.430000  0.000000  0.000000
  0.440000  0.000000  0.000000
  0.450000  0.000000  0.000000
  0.460000  0.000000  0.000000
  0.470000  0.000000  0.000000
  0.480000  0.000000  0.000000
  0.490000  0.000000  0.000000
  0.500000  0.000000  0.000000
  0.510000  0.000000  0.000000
  0.520000  0.000000  0.000000
  0.530000  0.000000  0.000000
  0.540000  0.000000  0.000000
  0.550000  0.000000  0.000000
  0.560000  0.000000  0.000000
  0.570000  0.000000  0.000000
  0.580000  0.000000  0.000000
  0.590000  0.000000  0.000000
  0.600000  0.000000  0.000000
  0.610000  0.000000  0.000000
  0.620000  0.000000  0.000000
  0.630000  0.000000  0.000000
  0.640000  0.000000  0.000000
  0.650000  0.000000  0.000000
  0.660000  0.000000  0.000000
  0.670000  0.000000  0.000000
  0.680000  0.000000  0.000000
  0.690000  0.000000  0.000000
  0.700000  0.000000  0.000000
  0.710000  0.000000  0.000000
  0.720000  0.000000  0.000000
  0.730000  0.000000  0.000000
  0.740000  0.000000  0.000000
  0.750000  0.000000  0.000000
  0.760000  0.000000  0.000000
  0.770000  0.000000  0.000000
  0.780000  0.000000  0.000000
  0.790000  0.000000  0.000000
  0.800000  0.000000  0.000000
  0.700000  0.010000  0.000000
  0.700000  0.020000  0.000000
  0.700000  0.030000  0.000000
  0.700000  0.040000  0.000000
  0.700000  0.050000  0.000000
  0.700000  0.060000  0.000000
  0.700000  0.070000  0.000000
  0.700000  0.080000  0.000000
  0.700000  0.090000  0.000000
  0.700000  0.100000  0.000000
  0.700000  0.110000  0.000000
  0.700000  0.120000  0.000000
  0.700000  0.130000  0.000000
  0.700000  0.140000  0.000000
  0.700000  0.150000  0.000000
  0.700000  0.160000  0.000000
  0.700000  0.170000  0.000000
  0.700000  0.180000  0.000000
  0.700000  0.190000  0.000000
  0.700000  0.200000  0.000000
  0.700000  0.210000  0.000000
  0.700000  0.220000  0.000000
  0.700000  0.230000  0.000000
  0.700000  0.240000  0.000000
  0.700000  0.250000  0.000000
  0.700000  0.260000  0.000000
  0.700000  0.270000  0.000000
  0.700000  0.280000  0.000000
  0.700000  0.290000  0.000000
  0.700000  0.300000  0.000000
  0.700000  0.310000  0.000000
  0.700000  0.320000  0.000000
  0.700000  0.330000  0.000000
  0.700000  0.340000  0.000000
  0.700000  0.350000  0.000000
  0.700000  0.360000  0.000000
  0.700000  0.370000  0.000000
  0.700000  0.380000  0.000000
  0.700000  0.390000  0.000000
  0.700000  0.400000  0.000000
  0.700000  0.410000  0.000000
  0.700000  0.420000  0.000000
  0.700000  0.430000  0.000000
  0.700000  0.440000  0.000000
  0.700000  0.450000  0.000000
  0.700000  0.460000  0.000000
  0.700000  0.470000  0.000000
  0.700000  0.480000  0.000000
  0.700000  0.490000  0.000000
  0.700000  0.500000  0.000000
  0.019655  0.010514  0.000000
  0.025840  0.015201  0.000000
  0.044801  0.014973  0.000000
  0.010613  0.009476  0.000000
  0.053539  0.022462  0.000000
  0.010377  0.019749  0.000000
  0.061985  0.026873  0.000000
  0.058886  0.012632  0.000000
  0.096138  0.026924  0.000000
  0.072278  0.027453  0.000000
  0.081234  0.031808  0.000000
  0.011937  0.026387  0.000000
  0.024878  0.038451  0.000000
  0.009698  0.035519  0.000000
  0.011406  0.043891  0.000000
  0.022149  0.045364  0.000000
  0.053443  0.049512  0.000000
  0.010408  0.052291  0.000000
  0.048196  0.050910  0.000000
  0.010233  0.061425  0.000000
  0.022953  0.054636  0.000000
  0.019517  0.071311  0.000000
  0.010580  0.070359  0.000000
  0.015603  0.085722  0.000000
  0.007785  0.081695  0.000000
  0.036179  0.078713  0.000000
  0.013858  0.094704  0.000000
  0.021211  0.089042  0.000000
  0.024862  0.077519  0.000000
  0.042945  0.094727  0.000000
  0.051650  0.008925  0.000000
  0.034461  0.007793  0.000000
  0.069031  0.009643  0.000000
  0.068463  0.017294  0.000000
  0.092524  0.009402  0.000000
  0.100990  0.016150  0.000000
  0.115638  0.008546  0.000000
  0.079613  0.009732  0.000000
  0.091279  0.027534  0.000000
  0.080266  0.021594  0.000000
  0.053268  0.036998  0.000000
  0.037225  0.016861  0.000000
  0.077700  0.041647  0.000000
  0.035969  0.026132  0.000000
  0.060466  0.040599  0.000000
  0.023314  0.031460  0.000000
  0.023691  0.023836  0.000000
  0.039006  0.031496  0.000000
  0.068207  0.048444  0.000000
  0.034964  0.044118  0.000000
  0.071246  0.053819  0.000000
  0.041040  0.040016  0.000000
  0.022477  0.060658  0.000000
  0.039322  0.062664  0.000000
  0.029839  0.072849  0.000000
  0.046097  0.078140  0.000000
  0.033795  0.060590  0.000000
  0.046648  0.070954  0.000000
  0.046011  0.088193  0.000000
  0.062053  0.084211  0.000000
  0.148729  0.009036  0.000000
  0.104151  0.010224  0.000000
  0.134170  0.009534  0.000000
  0.111669  0.021313  0.000000
  0.130514  0.011986  0.000000
  0.168977  0.007972  0.000000
  0.198871  0.013016  0.000000
  0.144940  0.023353  0.000000
  0.111673  0.030647  0.000000
  0.086912  0.015753  0.000000
  0.129351  0.024467  0.000000
  0.118967  0.015275  0.000000
  0.096099  0.042036  0.000000
  0.101811  0.063886  0.000000
  0.128370  0.050504  0.000000
  0.050188  0.029097  0.000000
  0.082885  0.044904  0.000000
  0.068265  0.035910  0.000000
  0.058379  0.056861  0.000000
  0.037451  0.052206  0.000000
  0.080374  0.057467  0.000000
  0.074802  0.069192  0.000000
  0.066968  0.063673  0.000000
  0.052095  0.065104  0.000000
  0.067879  0.073853  0.000000
  0.057629  0.069563  0.000000
  0.065931  0.085155  0.000000
  0.074967  0.102241  0.000000
  0.077491  0.083539  0.000000
  0.049228  0.091399  0.000000
  0.187821  0.009155  0.000000
  0.159656  0.012055  0.000000
  0.203605  0.010924  0.000000
  0.164586  0.018310  0.000000
  0.191581  0.037068  0.000000
  0.180428  0.011747  0.000000
  0.177268  0.033482  0.000000
  0.180973  0.018770  0.000000
  0.158772  0.032645  0.000000
  0.106982  0.029588  0.000000
  0.171782  0.032120  0.000000
  0.125247  0.024329  0.000000
  0.142583  0.035729  0.000000
  0.092937  0.039221  0.000000
  0.095298  0.053777  0.000000
  0.148014  0.014801  0.000000
  0.108867  0.041920  0.000000
  0.124093  0.036897  0.000000
  0.108803  0.047191  0.000000
  0.109854  0.056544  0.000000
  0.135638  0.053270  0.000000
  0.091395  0.054587  0.000000
  0.083316  0.064126  0.000000
  0.116977  0.065051  0.000000
  0.097467  0.067759  0.000000
  0.080013  0.081757  0.000000
  0.095676  0.089978  0.000000
  0.088035  0.072664  0.000000
  0.080757  0.094027  0.000000
  0.101360  0.087004  0.000000
  0.231609  0.012819  0.000000
  0.215130  0.014178  0.000000
  0.219864  0.009981  0.000000
  0.199405  0.022262  0.000000
  0.269312  0.015003  0.000000
  0.191903  0.028260  0.000000
  0.184825  0.024625  0.000000
  0.208142  0.023335  0.000000
  0.166904  0.023004  0.000000
  0.223981  0.031369  0.000000
  0.155134  0.028550  0.000000
  0.204379  0.034581  0.000000
  0.187811  0.040998  0.000000
  0.172131  0.043265  0.000000
  0.183276  0.057414  0.000000
  0.139602  0.024230  0.000000
  0.157281  0.040476  0.000000
  0.131468  0.038685  0.000000
  0.150244  0.056776  0.000000
  0.121075  0.041928  0.000000
  0.116932  0.054939  0.000000
  0.140571  0.048296  0.000000
  0.127501  0.064970  0.000000
  0.090687  0.077832  0.000000
  0.130607  0.079717  0.000000
  0.107554  0.073139  0.000000
  0.114252  0.073513  0.000000
  0.138184  0.085377  0.000000
  0.121920  0.086625  0.000000
  0.105156  0.083002  0.000000
  0.270301  0.010230  0.000000
  0.246787  0.012001  0.000000
  0.300395  0.019263  0.000000
  0.268174  0.030654  0.000000
  0.314164  0.013747  0.000000
  0.276013  0.034689  0.000000
  0.289935  0.012784  0.000000
  0.254068  0.010130  0.000000
  0.261351  0.019182  0.000000
  0.283919  0.021990  0.000000
  0.240815  0.023836  0.000000
  0.250454  0.020094  0.000000
  0.235594  0.011798  0.000000
  0.207361  0.041789  0.000000
  0.187699  0.053585  0.000000
  0.198942  0.047264  0.000000
  0.145141  0.039350  0.000000
  0.221563  0.042580  0.000000
  0.157492  0.049292  0.000000
  0.177399  0.046133  0.000000
  0.163427  0.050051  0.000000
  0.170896  0.057885  0.000000
  0.128449  0.062049  0.000000
  0.159186  0.069693  0.000000
  0.151962  0.069568  0.000000
  0.148423  0.058895  0.000000
  0.142638  0.072274  0.000000
  0.140382  0.069483  0.000000
  0.118325  0.083874  0.000000
  0.138069  0.083598  0.000000
  0.341563  0.011982  0.000000
  0.282072  0.011655  0.000000
  0.297767  0.010167  0.000000
  0.277709  0.023421  0.000000
  0.376645  0.022906  0.000000
  0.325792  0.010916  0.000000
  0.359426  0.011168  0.000000
  0.311057  0.011306  0.000000
  0.310886  0.022985  0.000000
  0.291811  0.031365  0.000000
  0.297751  0.025558  0.000000
  0.305818  0.037085  0.000000
  0.260876  0.028099  0.000000
  0.221394  0.021211  0.000000
  0.229966  0.024940  0.000000
  0.212601  0.030393  0.000000
  0.215914  0.043639  0.000000
  0.245167  0.038329  0.000000
  0.206288  0.058619  0.000000
  0.197082  0.053663  0.000000
  0.213248  0.055533  0.000000
  0.189667  0.066874  0.000000
  0.169856  0.061428  0.000000
  0.186701  0.068598  0.000000
  0.174330  0.071375  0.000000
  0.175698  0.085080  0.000000
  0.170294  0.096013  0.000000
  0.166813  0.072522  0.000000
  0.160909  0.082395  0.000000
  0.157119  0.083241  0.000000
  0.369611  0.010852  0.000000
  0.358567  0.015581  0.000000
  0.409399  0.027066  0.000000
  0.376770  0.012919  0.000000
  0.442496  0.026470  0.000000
  0.400540  0.012676  0.000000
  0.400288  0.022590  0.000000
  0.375043  0.025930  0.000000
  0.385809  0.011854  0.000000
  0.364446  0.025877  0.000000
  0.346167  0.011317  0.000000
  0.329722  0.013101  0.000000
  0.328742  0.023554  0.000000
  0.280189  0.037642  0.000000
  0.291047  0.048174  0.000000
  0.244315  0.029043  0.000000
  0.231707  0.035943  0.000000
  0.276443  0.051267  0.000000
  0.256406  0.035328  0.000000
  0.270918  0.045652  0.000000
  0.229384  0.055137  0.000000
  0.232234  0.046550  0.000000
  0.238800  0.056192  0.000000
  0.202758  0.067806  0.000000
  0.220881  0.057840  0.000000
  0.209738  0.068971  0.000000
  0.206644  0.077860  0.000000
  0.190616  0.079804  0.000000
  0.180967  0.078167  0.000000
  0.193018  0.087021  0.000000
  0.451545  0.012115  0.000000
  0.426427  0.010505  0.000000
  0.459578  0.014889  0.000000
  0.434578  0.012702  0.000000
  0.478869  0.025507  0.000000
  0.442053  0.009858  0.000000
  0.460726  0.036752  0.000000
  0.412471  0.013447  0.000000
  0.413146  0.011024  0.000000
  0.414897  0.027198  0.000000
  0.357253  0.031030  0.000000
  0.368345  0.035336  0.000000
  0.342206  0.037040  0.000000
  0.352394  0.026150  0.000000
  0.344426  0.022205  0.000000
  0.294041  0.037085  0.000000
  0.315016  0.029111  0.000000
  0.299685  0.052053  0.000000
  0.320249  0.050262  0.000000
  0.284820  0.049353  0.000000
  0.258690  0.043364  0.000000
  0.253641  0.045915  0.000000
  0.247662  0.058391  0.000000
  0.239923  0.043489  0.000000
  0.252430  0.058385  0.000000
  0.228071  0.072215  0.000000
  0.223259  0.067832  0.000000
  0.222071  0.082087  0.000000
  0.237070  0.079727  0.000000
  0.202077  0.083488  0.000000
  0.531154  0.017723  0.000000
  0.453994  0.025304  0.000000
  0.544212  0.012736  0.000000
  0.509131  0.013105  0.000000
  0.563139  0.026089  0.000000
  0.503667  0.010978  0.000000
  0.545216  0.025893  0.000000
  0.484034  0.018449  0.000000
  0.463505  0.025730  0.000000
  0.423397  0.020763  0.000000
  0.427354  0.037684  0.000000
  0.415146  0.037439  0.000000
  0.340032  0.029754  0.000000
  0.392646  0.012414  0.000000
  0.391858  0.023877  0.000000
  0.390323  0.031392  0.000000
  0.329745  0.041362  0.000000
  0.330158  0.025770  0.000000
  0.324964  0.039934  0.000000
  0.304838  0.041984  0.000000
  0.317222  0.034776  0.000000
  0.287301  0.064267  0.000000
  0.306845  0.053460  0.000000
  0.267268  0.056816  0.000000
  0.296647  0.074631  0.000000
  0.275776  0.066142  0.000000
  0.264058  0.056442  0.000000
  0.252519  0.068078  0.000000
  0.234026  0.064862  0.000000
  0.244063  0.074441  0.000000
  0.575021  0.025289  0.000000
  0.526591  0.027564  0.000000
  0.621196  0.011872  0.000000
  0.557571  0.010860  0.000000
  0.606712  0.015643  0.000000
  0.550196  0.014728  0.000000
  0.579170  0.012459  0.000000
  0.567176  0.011128  0.000000
  0.523722  0.011835  0.000000
  0.486340  0.011184  0.000000
  0.519280  0.012575  0.000000
  0.444698  0.022049  0.000000
  0.469917  0.020435  0.000000
  0.481839  0.042650  0.000000
  0.456839  0.048066  0.000000
  0.399637  0.034482  0.000000
  0.402977  0.041573  0.000000
  0.381766  0.037491  0.000000
  0.371607  0.045202  0.000000
  0.357589  0.059289  0.000000
  0.359133  0.055533  0.000000
  0.343670  0.050684  0.000000
  0.316374  0.051158  0.000000
  0.322760  0.076351  0.000000
  0.291151  0.060098  0.000000
  0.278551  0.067789  0.000000
  0.304287  0.079839  0.000000
  0.264183  0.076491  0.000000
  0.264612  0.070780  0.000000
  0.248182  0.074884  0.000000
  0.647216  0.024295  0.000000
  0.626348  0.013238  0.000000
  0.652376  0.032578  0.000000
  0.642464  0.010635  0.000000
  0.654738  0.012641  0.000000
  0.636384  0.012878  0.000000
  0.611956  0.012177  0.000000
  0.592469  0.011579  0.000000
  0.598842  0.012554  0.000000
  0.576204  0.028298  0.000000
  0.564446  0.017367  0.000000
  0.536378  0.010683  0.000000
  0.517288  0.026446  0.000000
  0.507157  0.024344  0.000000
  0.464926  0.009726  0.000000
  0.465366  0.040592  0.000000
  0.445004  0.038056  0.000000
  0.447545  0.037010  0.000000
  0.437416  0.051631  0.000000
  0.435444  0.043469  0.000000
  0.395504  0.045173  0.000000
  0.413341  0.045257  0.000000
  0.357640  0.043165  0.000000
  0.362204  0.044233  0.000000
  0.345517  0.043853  0.000000
  0.325036  0.061295  0.000000
  0.302217  0.076367  0.000000
  0.308989  0.066883  0.000000
  0.306086  0.063588  0.000000
  0.287712  0.074892  0.000000
  0.672562  0.025721  0.000000
  0.664217  0.086894  0.000000
  0.679182  0.045394  0.000000
  0.672148  0.017494  0.000000
  0.666901  0.067963  0.000000
  0.665253  0.034154  0.000000
  0.661390  0.038288  0.000000
  0.647512  0.042133  0.000000
  0.640721  0.022698  0.000000
  0.621367  0.028370  0.000000
  0.613386  0.023783  0.000000
  0.583034  0.013171  0.000000
  0.566825  0.044370  0.000000
  0.583820  0.051667  0.000000
  0.506280  0.036008  0.000000
  0.531742  0.056856  0.000000
  0.498693  0.023553  0.000000
  0.494602  0.013055  0.000000
  0.475960  0.011769  0.000000
  0.526478  0.043182  0.000000
  0.476254  0.031208  0.000000
  0.459717  0.060572  0.000000
  0.429455  0.024022  0.000000
  0.409516  0.061982  0.000000
  0.403527  0.054255  0.000000
  0.373667  0.057022  0.000000
  0.348862  0.059993  0.000000
  0.336067  0.048985  0.000000
  0.330645  0.059752  0.000000
  0.319263  0.067605  0.000000
  0.691478  0.073666  0.000000
  0.668202  0.078243  0.000000
  0.680222  0.031362  0.000000
  0.671511  0.039032  0.000000
  0.659169  0.151105  0.000000
  0.668239  0.008370  0.000000
  0.675483  0.068992  0.000000
  0.681189  0.084543  0.000000
  0.652549  0.070867  0.000000
  0.669064  0.102307  0.000000
  0.662258  0.049818  0.000000
  0.647083  0.065306  0.000000
  0.634102  0.033028  0.000000
  0.642788  0.083310  0.000000
  0.613450  0.035912  0.000000
  0.599549  0.026808  0.000000
  0.604915  0.064041  0.000000
  0.561919  0.037199  0.000000
  0.584908  0.037663  0.000000
  0.542492  0.027903  0.000000
  0.509471  0.033631  0.000000
  0.491411  0.029444  0.000000
  0.486742  0.058213  0.000000
  0.430551  0.065303  0.000000
  0.426127  0.050118  0.000000
  0.423244  0.064531  0.000000
  0.379936  0.049159  0.000000
  0.376120  0.063812  0.000000
  0.348655  0.065934  0.000000
  0.335796  0.065425  0.000000
  0.684187  0.059663  0.000000
  0.670063  0.174100  0.000000
  0.665855  0.133092  0.000000
  0.682699  0.133879  0.000000
  0.685392  0.172120  0.000000
  0.690431  0.055293  0.000000
  0.679327  0.012184  0.000000
  0.652649  0.139532  0.000000
  0.670546  0.119894  0.000000
  0.680802  0.056257  0.000000
  0.678314  0.117138  0.000000
  0.662624  0.020493  0.000000
  0.686007  0.019239  0.000000
  0.670020  0.052709  0.000000
  0.630661  0.022945  0.000000
  0.655952  0.071254  0.000000
  0.632927  0.041760  0.000000
  0.605940  0.032709  0.000000
  0.611726  0.047296  0.000000
  0.589681  0.023171  0.000000
  0.589520  0.030749  0.000000
  0.534748  0.040202  0.000000
  0.512656  0.072232  0.000000
  0.494007  0.040957  0.000000
  0.477171  0.040920  0.000000
  0.494531  0.055641  0.000000
  0.431060  0.030974  0.000000
  0.419698  0.047619  0.000000
  0.385584  0.042394  0.000000
  0.377857  0.061810  0.000000
  0.681090  0.102270  0.000000
  0.689673  0.024895  0.000000
  0.685512  0.191336  0.000000
  0.685951  0.289007  0.000000
  0.687989  0.042461  0.000000
  0.689005  0.010309  0.000000
  0.663792  0.200801  0.000000
  0.684791  0.208767  0.000000
  0.688074  0.036657  0.000000
  0.690040  0.099681  0.000000
  0.689458  0.159188  0.000000
  0.680565  0.091902  0.000000
  0.687352  0.137630  0.000000
  0.649913  0.173666  0.000000
  0.649275  0.163613  0.000000
  0.668469  0.117731  0.000000
  0.644643  0.119815  0.000000
  0.656156  0.016588  0.000000
  0.650428  0.052716  0.000000
  0.639135  0.057479  0.000000
  0.644749  0.037406  0.000000
  0.601039  0.038729  0.000000
  0.581382  0.050356  0.000000
  0.593505  0.050081  0.000000
  0.525494  0.050434  0.000000
  0.514908  0.049686  0.000000
  0.493996  0.036882  0.000000
  0.443463  0.063710  0.000000
  0.430180  0.060373  0.000000
  0.391980  0.057470  0.000000
  0.665143  0.269414  0.000000
  0.614719  0.314734  0.000000
  0.679331  0.148518  0.000000
  0.643203  0.231294  0.000000
  0.581992  0.368936  0.000000
  0.661304  0.230985  0.000000
  0.682726  0.224929  0.000000
  0.691214  0.242343  0.000000
  0.660496  0.306508  0.000000
  0.657596  0.218498  0.000000
  0.687100  0.111511  0.000000
  0.682429  0.173499  0.000000
  0.672074  0.179985  0.000000
  0.629494  0.158466  0.000000
  0.673440  0.167740  0.000000
  0.680616  0.159049  0.000000
  0.671255  0.128988  0.000000
  0.689490  0.116590  0.000000
  0.673042  0.148429  0.000000
  0.665581  0.086223  0.000000
  0.659482  0.102782  0.000000
  0.633555  0.073913  0.000000
  0.624311  0.035627  0.000000
  0.639226  0.052805  0.000000
  0.573280  0.038763  0.000000
  0.546477  0.060959  0.000000
  0.529314  0.029071  0.000000
  0.516591  0.046007  0.000000
  0.460614  0.049169  0.000000
  0.407663  0.060779  0.000000
  0.657263  0.222641  0.000000
  0.544695  0.447799  0.000000
  0.665795  0.268628  0.000000
  0.686877  0.188384  0.000000
  0.662914  0.302268  0.000000
  0.689666  0.141340  0.000000
  0.687661  0.082841  0.000000
  0.676010  0.258491  0.000000
  0.663389  0.289152  0.000000
  0.684803  0.327086  0.000000
  0.590601  0.261187  0.000000
  0.645914  0.191062  0.000000
  0.604590  0.276913  0.000000
  0.644733  0.251054  0.000000
  0.683808  0.204610  0.000000
  0.666236  0.232641  0.000000
  0.671517  0.198625  0.000000
  0.651746  0.191014  0.000000
  0.672559  0.104001  0.000000
  0.680669  0.187363  0.000000
  0.662187  0.198339  0.000000
  0.639539  0.131436  0.000000
  0.654977  0.091795  0.000000
  0.666005  0.061245  0.000000
  0.640487  0.075835  0.000000
  0.626233  0.046766  0.000000
  0.593332  0.043796  0.000000
  0.554029  0.032626  0.000000
  0.502402  0.049884  0.000000
  0.472156  0.050985  0.000000
  0.555093  0.450783  0.000000
  0.633197  0.421659  0.000000
  0.677365  0.254212  0.000000
  0.676174  0.477960  0.000000
  0.524392  0.446065  0.000000
  0.621359  0.307119  0.000000
  0.633125  0.433803  0.000000
  0.599530  0.498836  0.000000
  0.635733  0.408902  0.000000
  0.659953  0.376459  0.000000
  0.661634  0.386886  0.000000
  0.626583  0.262489  0.000000
  0.670963  0.256051  0.000000
  0.642086  0.301818  0.000000
  0.683220  0.240808  0.000000
  0.684778  0.280140  0.000000
  0.632436  0.179984  0.000000
  0.641316  0.208294  0.000000
  0.630701  0.183261  0.000000
  0.681972  0.074528  0.000000
  0.665001  0.150147  0.000000
  0.655505  0.104081  0.000000
  0.653845  0.113050  0.000000
  0.654675  0.055103  0.000000
  0.626920  0.055791  0.000000
  0.610675  0.051174  0.000000
  0.546458  0.037774  0.000000
  0.542761  0.046892  0.000000
  0.560966  0.429725  0.000000
  0.603738  0.474257  0.000000
  0.665310  0.448974  0.000000
  0.503263  0.438332  0.000000
  0.660351  0.401515  0.000000
  0.668012  0.436384  0.000000
  0.666937  0.387555  0.000000
  0.635299  0.283419  0.000000
  0.678821  0.344764  0.000000
  0.621476  0.295428  0.000000
  0.618362  0.268365  0.000000
  0.649768  0.283023  0.000000
  0.653073  0.252108  0.000000
  0.643490  0.243479  0.000000
  0.644039  0.210809  0.000000
  0.655801  0.150156  0.000000
  0.649252  0.131906  0.000000
  0.640610  0.137045  0.000000
  0.647981  0.089852  0.000000
  0.617109  0.055233  0.000000
  0.626217  0.062125  0.000000
  0.547740  0.049307  0.000000
 -0.010000  0.500000  0.000000
 -0.010000  0.490000  0.000000
 -0.010000  0.480000  0.000000
 -0.010000  0.470000  0.000000
 -0.010000  0.460000  0.000000
 -0.010000  0.450000  0.000000
 -0.010000  0.440000  0.000000
 -0.010000  0.430000  0.000000
 -0.010000  0.420000  0.000000
 -0.010000  0.410000  0.000000
 -0.010000  0.400000  0.000000
 -0.010000  0.390000  0.000000
 -0.010000  0.380000  0.000000
 -0.010000  0.370000  0.000000
 -0.010000  0.360000  0.000000
 -0.010000  0.350000  0.000000
 -0.010000  0.340000  0.000000
 -0.010000  0.330000  0.000000
 -0.010000  0.320000  0.000000
 -0.010000  0.310000  0.000000
 -0.010000  0.300000  0.000000
 -0.010000  0.290000  0.000000
 -0.010000  0.280000  0.000000
 -0.010000  0.270000  0.000000
 -0.010000  0.260000  0.000000
 -0.010000  0.250000  0.000000
 -0.010000  0.240000  0.000000
 -0.010000  0.230000  0.000000
 -0.010000  0.220000  0.000000
 -0.010000  0.210000  0.000000
 -0.010000  0.200000  0.000000
 -0.010000  0.190000  0.000000
 -0.010000  0.180000  0.000000
 -0.010000  0.170000  0.000000
 -0.010000  0.160000  0.000000
 -0.010000  0.150000  0.000000
 -0.010000  0.140000  0.000000
 -0.010000  0.130000  0.000000
 -0.010000  0.120000  0.000000
 -0.010000  0.110000  0.000000
 -0.010000  0.100000  0.000000
 -0.010000  0.090000  0.000000
 -0.010000  0.080000  0.000000
 -0.010000  0.070000  0.000000
 -0.010000  0.060000  0.000000
 -0.010000  0.050000  0.000000
 -0.010000  0.040000  0.000000
 -0.010000  0.030000  0.000000
 -0.010000  0.020000  0.000000
 -0.010000  0.010000  0.000000
 -0.100000 -0.010000  0.000000
 -0.090000 -0.010000  0.000000
 -0.080000 -0.010000  0.000000
 -0.070000 -0.010000  0.000000
 -0.060000 -0.010000  0.000000
 -0.050000 -0.010000  0.000000
 -0.040000 -0.010000  0.000000
 -0.030000 -0.010000  0.000000
 -0.020000 -0.010000  0.000000
 -0.010000 -0.010000  0.000000
 -0.000000 -0.010000  0.000000
  0.010000 -0.010000  0.000000
  0.020000 -0.010000  0.000000
  0.030000 -0.010000  0.000000
  0.040000 -0.010000  0.000000
  0.050000 -0.010000  0.000000
  0.060000 -0.010000  0.000000
  0.070000 -0.010000  0.000000
  0.080000 -0.010000  0.000000