<?xml version="1.0" encoding="UTF-8"?>
<VTKFile type="UnstructuredGrid" version="1.0" byte_order="LittleEndian">
<UnstructuredGrid>
  <Piece NumberOfPoints="1555" NumberOfCells="1555">
      <PointData>
        <DataArray type="Int32" Name="Type" format="ascii">
 1 1 1 1 1 1 1 1 1 1
 1 1 1 1 1 1 1 1 1 1
 1 1 1 1 1 1 1 1 1 1
 1 1 1 1 1 1 1 1 1 1
 1 1 1 1 1 1 1 1 1 1
 1 1 1 1 1 1 1 1 1 1
 1 3 3 3 3 3 3 3 3 3
 3 3 3 3 3 3 3 3 3 3
 3 3 3 3 3 3 3 3 3 3
 3 3 3 3 3 3 3 3 3 3
 3 3 3 3 3 3 3 3 3 3
 3 3 3 3 3 3 3 3 3 3
 3 3 3 3 3 3 3 3 3 3
 1 1 1 1 1 1 1 1 1 1
 1 1 1 1 1 1 1 1 1 1
 1 1 1 1 1 1 1 1 1 1
 1 1 1 1 1 1 1 1 1 1
 1 1 1 1 1 1 1 1 1 1
 1 1 1 1 1 1 1 1 1 1
 1 2 2 2 2 2 2 2 2 2
 2 2 2 2 2 2 2 2 2 2
 2 2 2 2 2 2 2 2 2 2
 2 2 2 2 2 2 2 2 2 2
 2 2 2 2 2 2 2 2 2 2
 2 2 2 2 2 2 2 2 2 2
 2 2 2 2 2 2 2 2 2 2
 2 2 2 2 2 2 2 2 2 2
 2 2 2 2 2 2 2 2 2 2
 2 2 2 2 2 2 2 2 2 2
 2 2 2 2 2 2 2 2 2 2
 2 2 2 2 2 2 2 2 2 2
 2 2 2 2 2 2 2 2 2 2
 2 2 2 2 2 2 2 2 2 2
 2 2 2 2 2 2 2 2 2 2
 2 2 2 2 2 2 2 2 2 2
 2 2 2 2 2 2 2 2 2 2
 2 2 2 2 2 2 2 2 2 2
 2 2 2 2 2 2 2 2 2 2
 2 2 2 2 2 2 2 2 2 2
 2 2 2 2 2 2 2 2 2 2
 2 2 2 2 2 2 2 2 2 2
 2 2 2 2 2 2 2 2 2 2
 2 2 2 2 2 2 2 2 2 2
 2 2 2 2 2 2 2 2 2 2
 2 2 2 2 2 2 2 2 2 2
 2 2 2 2 2 2 2 2 2 2
 2 2 2 2 2 2 2 2 2 2
 2 2 2 2 2 2 2 2 2 2
 2 2 2 2 2 2 2 2 2 2
 2 2 2 2 2 2 2 2 2 2
 2 2 2 2 2 2 2 2 2 2
 2 2 2 2 2 2 2 2 2 2
 2 2 2 2 2 2 2 2 2 2
 2 2 2 2 2 2 2 2 2 2
 2 2 2 2 2 2 2 2 2 2
 2 2 2 2 2 2 2 2 2 2
 2 2 2 2 2 2 2 2 2 2
 2 2 2 2 2 2 2 2 2 2
 2 2 2 2 2 2 2 2 2 2
 2 2 2 2 2 2 2 2 2 2
 2 2 2 2 2 2 2 2 2 2
 2 2 2 2 2 2 2 2 2 2
 2 2 2 2 2 2 2 2 2 2
 2 2 2 2 2 2 2 2 2 2
 2 2 2 2 2 2 2 2 2 2
 2 2 2 2 2 2 2 2 2 2
 2 2 2 2 2 2 2 2 2 2
 2 2 2 2 2 2 2 2 2 2
 2 2 2 2 2 2 2 2 2 2
 2 2 2 2 2 2 2 2 2 2
 2 2 2 2 2 2 2 2 2 2
 2 2 2 2 2 2 2 2 2 2
 2 2 2 2 2 2 2 2 2 2
 2 2 2 2 2 2 2 2 2 2
 2 2 2 2 2 2 2 2 2 2
 2 2 2 2 2 2 2 2 2 2
 2 2 2 2 2 2 2 2 2 2
 2 2 2 2 2 2 2 2 2 2
 2 2 2 2 2 2 2 2 2 2
 2 0 0 0 0 0 0 0 0 0
 0 0 0 0 0 0 0 0 0 0
 0 0 0 0 0 0 0 0 0 0
 0 0 0 0 0 0 0 0 0 0
 0 0 0 0 0 0 0 0 0 0
 0 0 0 0 0 0 0 0 0 0
 0 0 0 0 0 0 0 0 0 0
 0 0 0 0 0 0 0 0 0 0
 0 0 0 0 0 0 0 0 0 0
 0 0 0 0 0 0 0 0 0 0
 0 0 0 0 0 0 0 0 0 0
 0 0 0 0 0 0 0 0 0 0
 0 0 0 0 0 0 0 0 0 0
 0 0 0 0 0 0 0 0 0 0
 0 0 0 0 0 0 0 0 0 0
 0 0 0 0 0 0 0 0 0 0
 0 0 0 0 0 0 0 0 0 0
 0 0 0 0 0 0 0 0 0 0
 0 0 0 0 0 0 0 0 0 0
 0 0 0 0 0 0 0 0 0 0
 0 0 0 0 0 0 0 0 0 0
 0 0 0 0 0 0 0 0 0 0
 0 0 0 0 0 0 0 0 0 0
 0 0 0 0 0 0 0 0 0 0
 0 0 0 0 0 0 0 0 0 0
 0 0 0 0 0 0 0 0 0 0
 0 0 0 0 0 0 0 0 0 0
 0 0 0 0 0 0 0 0 0 0
 0 0 0 0 0 0 0 0 0 0
 0 0 0 0 0 0 0 0 0 0
 0 0 0 0 0 0 0 0 0 0
 0 0 0 0 0 0 0 0 0 0
 0 0 0 0 0 0 0 0 0 0
 0 0 0 0 0 0 0 0 0 0
 0 0 0 0 0 0 0 0 0 0
 0 0 0 0 0 0 0 0 0 0
 0 0 0 0 0 0 0 0 0 0
 0 0 0 0 0 0 0 0 0 0
 0 0 0 0 0 0 0 0 0 0
 0 0 0 0 0 0 0 0 0 0
 0 0 0 0 0 0 0 0 0 0
 0 0 0 0 0 0 0 0 0 0
 0 0 0 0 0 0 0 0 0 0
 0 0 0 0 0 0 0 0 0 0
 0 0 0 0 0 0 0 0 0 0
 0 0 0 0 0 0 0 0 0 0
 0 0 0 0 0 0 0 0 0 0
 0 0 0 0 0 0 0 0 0 0
 0 0 0 0 0 0 0 0 0 0
 0 0 0 0 0 0 0 0 0 0
 0 0 0 0 0 0 0 0 0 0
 0 0 0 0 0 0 0 0 0 0
 0 0 0 0 0 0 0 0 0 0
 0 0 0 0 0 0 0 0 0 0
 0 0 0 0 0 0 0 0 0 0
 0 0 0 0 0 0 0 0 0 0
 0 0 0 0 0 0 0 0 0 0
 0 0 0 0 0 0 0 0 0 0
 0 0 0 0 0 0 0 0 0 0
 0 0 0 0 0 0 0 0 0 0
 0 0 0 0 0 0 0 0 0 0
 0 0 0 0 0 0 0 0 0 0
 0 0 0 0 0 0 0 0 0 0
 0 0 0 0 0 0 0 0 0 0
 0 0 0 0 0 0 0 0 0 0
 0 0 0 0 0 0 0 0 0 0
 0 0 0 0 0 0 0 0 0 0
 0 0 0 0 0 0 0 0 0 0
 0 0 0 0 0 0 0 0 0 0
 0 0 0 0 0 0 0 0 0 0
 0 0 0 0 0 0 0 0 0 0
 0 0 0 0 0 0 0 0 0 0
 0 0 0 0 0 0 0 0 0 0
 0 0 0 0 0 0 0 0 0 0
 0 0 0 0 0 0 0 0 0 0
 0 0 0 0 0 0 0 0 0 0
 0 0 0 0 0
        </DataArray>
      </PointData>
      <Points>
        <DataArray type="Float32" NumberOfComponents="3" format="ascii">
  0.000000  0.500000  0.000000
  0.000000  0.490000  0.000000
  0.000000  0.480000  0.000000
  0.000000  0.470000  0.000000
  0.000000  0.460000  0.000000
  0.000000  0.450000  0.000000
  0.000000  0.440000  0.000000
  0.000000  0.430000  0.000000
  0.000000  0.420000  0.000000
  0.000000  0.410000  0.000000
  0.000000  0.400000  0.000000
  0.000000  0.390000  0.000000
  0.000000  0.380000  0.000000
  0.000000  0.370000  0.000000
  0.000000  0.360000  0.000000
  0.000000  0.350000  0.000000
  0.000000  0.340000  0.000000
  0.000000  0.330000  0.000000
  0.000000  0.320000  0.000000
  0.000000  0.310000  0.000000
  0.000000  0.300000  0.000000
  0.000000  0.290000  0.000000
  0.000000  0.280000  0.000000
  0.000000  0.270000  0.000000
  0.000000  0.260000  0.000000
  0.000000  0.250000  0.000000
  0.000000  0.240000  0.000000
  0.000000  0.230000  0.000000
  0.000000  0.220000  0.000000
  0.000000  0.210000  0.000000
  0.000000  0.200000  0.000000
  0.000000  0.190000  0.000000
  0.000000  0.180000  0.000000
  0.000000  0.170000  0.000000
  0.000000  0.160000  0.000000
  0.000000  0.150000  0.000000
  0.000000  0.140000  0.000000
  0.000000  0.130000  0.000000
  0.000000  0.120000  0.000000
  0.000000  0.110000  0.000000
  0.000000  0.100000  0.000000
  0.000000  0.090000  0.000000
  0.000000  0.080000  0.000000
  0.000000  0.070000  0.000000
  0.000000  0.060000  0.000000
  0.000000  0.050000  0.000000
  0.000000  0.040000  0.000000
  0.000000  0.030000  0.000000
  0.000000  0.020000  0.000000
  0.000000  0.010000  0.000000
 -0.100000  0.000000  0.000000
 -0.090000  0.000000  0.000000
 -0.080000  0.000000  0.000000
 -0.070000  0.000000  0.000000
 -0.060000  0.000000  0.000000
 -0.050000  0.000000  0.000000
 -0.040000  0.000000  0.000000
 -0.030000  0.000000  0.000000
 -0.020000  0.000000  0.000000
 -0.010000  0.000000  0.000000
 -0.000000  0.000000  0.000000
  0.010000  0.000000  0.000000
  0.020000  0.000000  0.000000
  0.030000  0.000000  0.000000
  0.040000  0.000000  0.000000
  0.050000  0.000000  0.000000
  0.060000  0.000000  0.000000
  0.070000  0.000000  0.000000
  0.080000  0.000000  0.000000
  0.090000  0.000000  0.000000
  0.100000  0.000000  0.000000
  0.110000  0.000000  0.000000
  0.120000  0.000000  0.000000
  0.130000  0.000000  0.000000
  0.140000  0.000000  0.000000
  0.150000  0.000000  0.000000
  0.160000  0.000000  0.000000
  0.170000  0.000000  0.000000
  0.180000  0.000000  0.000000
  0.190000  0.000000  0.000000
  0.200000  0.000000  0.000000
  0.210000  0.000000  0.000000
  0.220000  0.000000  0.000000
  0.230000  0.000000  0.000000
  0.240000  0.000000  0.000000
  0.250000  0.000000  0.000000
  0.260000  0.000000  0.000000
  0.270000  0.000000  0.000000
  0.280000  0.000000  0.000000
  0.290000  0.000000  0.000000
  0.300000  0.000000  0.000000
  0.310000  0.000000  0.000000
  0.320000  0.000000  0.000000
  0.330000  0.000000  0.000000
  0.340000  0.000000  0.000000
  0.350000  0.000000  0.000000
  0.360000  0.000000  0.000000
  0.370000  0.000000  0.000000
  0.380000  0.000000  0.000000
  0.390000  0.000000  0.000000
  0.400000  0.000000  0.000000
  0.410000  0.000000  0.000000
  0.420000  0.000000  0.000000
  0.430000  0.000000  0.000000
  0.440000  0.000000  0.000000
  0.450000  0.000000  0.000000
  0.460000  0.000000  0.000000
  0.470000  0.000000  0.000000
  0.480000  0.000000  0.000000
  0.490000  0.000000  0.000000
  0.500000  0.000000  0.000000
  0.510000  0.000000  0.000000
  0.520000  0.000000  0.000000
  0.530000  0.000000  0.000000
  0.540000  0.000000  0.000000
  0.550000  0.000000  0.000000
  0.560000  0.000000  0.000000
  0.570000  0.000000  0.000000
  0.580000  0.000000  0.000000
  0.590000  0.000000  0.000000
  0.600000  0.000000  0.000000
  0.610000  0.000000  0.000000
  0.620000  0.000000  0.000000
  0.630000  0.000000  0.000000
  0.640000  0.000000  0.000000
  0.650000  0.000000  0.000000
  0.660000  0.000000  0.000000
  0.670000  0.000000  0.000000
  0.680000  0.000000  0.000000
  0.690000  0.000000  0.000000
  0.700000  0.000000  0.000000
  0.710000  0.000000  0.000000
  0.720000  0.000000  0.000000
  0.730000  0.000000  0.000000
  0.740000  0.000000  0.000000
  0.750000  0.000000  0.000000
  0.760000  0.000000  0.000000
  0.770000  0.000000  0.000000
  0.780000  0.000000  0.000000
  0.790000  0.000000  0.000000
  0.800000  0.000000  0.000000
  0.700000  0.010000  0.000000
  0.700000  0.020000  0.000000
  0.700000  0.030000  0.000000
  0.700000  0.040000  0.000000
  0.700000  0.050000  0.000000
  0.700000  0.060000  0.000000
  0.700000  0.070000  0.000000
  0.700000  0.080000  0.000000
  0.700000  0.090000  0.000000
  0.700000  0.100000  0.000000
  0.700000  0.110000  0.000000
  0.700000  0.120000  0.000000
  0.700000  0.130000  0.000000
  0.700000  0.140000  0.000000
  0.700000  0.150000  0.000000
  0.700000  0.160000  0.000000
  0.700000  0.170000  0.000000
  0.700000  0.180000  0.000000
  0.700000  0.190000  0.000000
  0.700000  0.200000  0.000000
  0.700000  0.210000  0.000000
  0.700000  0.220000  0.000000
  0.700000  0.230000  0.000000
  0.700000  0.240000  0.000000
  0.700000  0.250000  0.000000
  0.700000  0.260000  0.000000
  0.700000  0.270000  0.000000
  0.700000  0.280000  0.000000
  0.700000  0.290000  0.000000
  0.700000  0.300000  0.000000
  0.700000  0.310000  0.000000
  0.700000  0.320000  0.000000
  0.700000  0.330000  0.000000
  0.700000  0.340000  0.000000
  0.700000  0.350000  0.000000
  0.700000  0.360000  0.000000
  0.700000  0.370000  0.000000
  0.700000  0.380000  0.000000
  0.700000  0.390000  0.000000
  0.700000  0.400000  0.000000
  0.700000  0.410000  0.000000
  0.700000  0.420000  0.000000
  0.700000  0.430000  0.000000
  0.700000  0.440000  0.000000
  0.700000  0.450000  0.000000
  0.700000  0.460000  0.000000
  0.700000  0.470000  0.000000
  0.700000  0.480000  0.000000
  0.700000  0.490000  0.000000
  0.700000  0.500000  0.000000
  0.017702  0.009536  0.000000
  0.021413  0.018438  0.000000
  0.035484  0.013990  0.000000
  0.009383  0.010884  0.000000
  0.023584  0.025069  0.000000
  0.009498  0.023115  0.000000
  0.032822  0.027428  0.000000
  0.040825  0.025622  0.000000
  0.052871  0.029348  0.000000
  0.034066  0.035788  0.000000
  0.042705  0.041125  0.000000
  0.011329  0.029364  0.000000
  0.008015  0.042525  0.000000
  0.011745  0.051249  0.000000
  0.008095  0.063101  0.000000
  0.020556  0.060856  0.000000
  0.033717  0.067725  0.000000
  0.013905  0.070604  0.000000
  0.024222  0.085051  0.000000
  0.008946  0.079714  0.000000
  0.014835  0.084720  0.000000
  0.009351  0.094017  0.000000
  0.010115  0.103177  0.000000
  0.014267  0.112566  0.000000
  0.009583  0.118302  0.000000
  0.019940  0.123551  0.000000
  0.009483  0.129005  0.000000
  0.020181  0.135118  0.000000
  0.011498  0.137834  0.000000
  0.026637  0.133282  0.000000
  0.042217  0.009344  0.000000
  0.029118  0.010524  0.000000
  0.053646  0.009792  0.000000
  0.046821  0.020332  0.000000
  0.064061  0.009596  0.000000
  0.064939  0.023883  0.000000
  0.080173  0.019645  0.000000
  0.057157  0.017735  0.000000
  0.055292  0.045389  0.000000
  0.049551  0.035510  0.000000
  0.040248  0.049819  0.000000
  0.020004  0.035166  0.000000
  0.053613  0.050504  0.000000
  0.029236  0.044102  0.000000
  0.051830  0.062311  0.000000
  0.018872  0.053838  0.000000
  0.019572  0.041365  0.000000
  0.032037  0.061882  0.000000
  0.044482  0.068950  0.000000
  0.021393  0.071681  0.000000
  0.043928  0.084158  0.000000
  0.033991  0.084873  0.000000
  0.021727  0.094928  0.000000
  0.034446  0.096720  0.000000
  0.020477  0.100885  0.000000
  0.034270  0.108956  0.000000
  0.023712  0.110992  0.000000
  0.031196  0.116965  0.000000
  0.030036  0.123317  0.000000
  0.037574  0.132866  0.000000
  0.094124  0.009352  0.000000
  0.075557  0.009505  0.000000
  0.084781  0.011036  0.000000
  0.070447  0.019381  0.000000
  0.094406  0.022425  0.000000
  0.109920  0.016211  0.000000
  0.123775  0.023042  0.000000
  0.096150  0.036527  0.000000
  0.083807  0.046735  0.000000
  0.063319  0.033687  0.000000
  0.077384  0.038424  0.000000
  0.085366  0.029301  0.000000
  0.064428  0.053626  0.000000
  0.064040  0.070905  0.000000
  0.078635  0.063880  0.000000
  0.032331  0.052070  0.000000
  0.060133  0.070132  0.000000
  0.045643  0.058910  0.000000
  0.044263  0.076926  0.000000
  0.029916  0.077400  0.000000
  0.056226  0.079060  0.000000
  0.053936  0.088595  0.000000
  0.048918  0.094903  0.000000
  0.037161  0.098055  0.000000
  0.053114  0.104909  0.000000
  0.043782  0.109083  0.000000
  0.047464  0.115616  0.000000
  0.050421  0.121305  0.000000
  0.048148  0.126639  0.000000
  0.042982  0.134616  0.000000
  0.128223  0.009003  0.000000
  0.105873  0.008921  0.000000
  0.126599  0.017668  0.000000
  0.096756  0.019166  0.000000
  0.124477  0.039141  0.000000
  0.117446  0.011055  0.000000
  0.121799  0.033685  0.000000
  0.113316  0.024216  0.000000
  0.105716  0.043525  0.000000
  0.078914  0.030033  0.000000
  0.113489  0.045325  0.000000
  0.071405  0.046886  0.000000
  0.102254  0.051917  0.000000
  0.065600  0.038455  0.000000
  0.066721  0.059594  0.000000
  0.091803  0.040373  0.000000
  0.077356  0.055349  0.000000
  0.086939  0.064984  0.000000
  0.077362  0.072788  0.000000
  0.070944  0.082015  0.000000
  0.086741  0.084529  0.000000
  0.064415  0.085982  0.000000
  0.057900  0.098932  0.000000
  0.074442  0.090616  0.000000
  0.068008  0.101909  0.000000
  0.063592  0.109833  0.000000
  0.068431  0.114712  0.000000
  0.064091  0.120880  0.000000
  0.060397  0.130743  0.000000
  0.065326  0.131020  0.000000
  0.154349  0.008482  0.000000
  0.139847  0.009359  0.000000
  0.154980  0.015679  0.000000
  0.142840  0.015695  0.000000
  0.168799  0.015605  0.000000
  0.138819  0.023071  0.000000
  0.135102  0.031187  0.000000
  0.147397  0.026225  0.000000
  0.103222  0.030100  0.000000
  0.144692  0.039078  0.000000
  0.110498  0.033316  0.000000
  0.136847  0.037606  0.000000
  0.125788  0.047928  0.000000
  0.116636  0.055527  0.000000
  0.125049  0.066273  0.000000
  0.089730  0.051515  0.000000
  0.108247  0.058203  0.000000
  0.095449  0.058573  0.000000
  0.104653  0.080086  0.000000
  0.095375  0.069475  0.000000
  0.082097  0.077505  0.000000
  0.095233  0.081081  0.000000
  0.090260  0.093455  0.000000
  0.074844  0.096457  0.000000
  0.088056  0.098838  0.000000
  0.081201  0.108950  0.000000
  0.080278  0.108743  0.000000
  0.082148  0.121284  0.000000
  0.079500  0.124690  0.000000
  0.074831  0.132834  0.000000
  0.180834  0.009254  0.000000
  0.168403  0.009543  0.000000
  0.195474  0.022762  0.000000
  0.177785  0.021683  0.000000
  0.217607  0.015639  0.000000
  0.182274  0.028847  0.000000
  0.201509  0.011266  0.000000
  0.159266  0.022835  0.000000
  0.168406  0.026713  0.000000
  0.188735  0.034505  0.000000
  0.167151  0.037926  0.000000
  0.174066  0.035654  0.000000
  0.156786  0.032394  0.000000
  0.140759  0.051969  0.000000
  0.126441  0.053574  0.000000
  0.132642  0.062064  0.000000
  0.112445  0.066967  0.000000
  0.140794  0.065329  0.000000
  0.101955  0.069628  0.000000
  0.121836  0.072631  0.000000
  0.114252  0.077781  0.000000
  0.115679  0.086022  0.000000
  0.100250  0.089748  0.000000
  0.109381  0.093011  0.000000
  0.105764  0.103020  0.000000
  0.097986  0.103604  0.000000
  0.098650  0.111786  0.000000
  0.097545  0.116352  0.000000
  0.091503  0.124670  0.000000
  0.094589  0.128001  0.000000
  0.231005  0.012332  0.000000
  0.191328  0.009933  0.000000
  0.209400  0.011980  0.000000
  0.186728  0.017371  0.000000
  0.255116  0.027296  0.000000
  0.223217  0.010606  0.000000
  0.233457  0.020810  0.000000
  0.208201  0.021752  0.000000
  0.200762  0.026169  0.000000
  0.206360  0.036661  0.000000
  0.194349  0.036877  0.000000
  0.199115  0.046158  0.000000
  0.176397  0.045178  0.000000
  0.153078  0.038354  0.000000
  0.159262  0.047103  0.000000
  0.143870  0.051770  0.000000
  0.150752  0.057560  0.000000
  0.158518  0.062911  0.000000
  0.141535  0.071936  0.000000
  0.132075  0.076928  0.000000
  0.145474  0.079377  0.000000
  0.130826  0.084712  0.000000
  0.124737  0.089635  0.000000
  0.129434  0.097558  0.000000
  0.115773  0.099148  0.000000
  0.122522  0.104804  0.000000
  0.117445  0.112488  0.000000
  0.113640  0.113921  0.000000
  0.110643  0.122912  0.000000
  0.105350  0.129066  0.000000
  0.247008  0.012156  0.000000
  0.241299  0.012520  0.000000
  0.290252  0.022168  0.000000
  0.255726  0.011316  0.000000
  0.297851  0.026698  0.000000
  0.266604  0.011508  0.000000
  0.273098  0.029127  0.000000
  0.246067  0.025262  0.000000
  0.260322  0.018478  0.000000
  0.239206  0.028295  0.000000
  0.224635  0.026485  0.000000
  0.217090  0.028642  0.000000
  0.215939  0.037048  0.000000
  0.184237  0.046871  0.000000
  0.192036  0.059631  0.000000
  0.171899  0.053093  0.000000
  0.160558  0.051352  0.000000
  0.181215  0.056564  0.000000
  0.165722  0.064377  0.000000
  0.174408  0.063433  0.000000
  0.157648  0.076005  0.000000
  0.155673  0.072922  0.000000
  0.156777  0.087050  0.000000
  0.140824  0.087368  0.000000
  0.147229  0.092079  0.000000
  0.140183  0.099332  0.000000
  0.137660  0.103991  0.000000
  0.132790  0.112914  0.000000
  0.129579  0.124897  0.000000
  0.127957  0.120309  0.000000
  0.298048  0.014304  0.000000
  0.281853  0.012266  0.000000
  0.305682  0.009833  0.000000
  0.287797  0.011363  0.000000
  0.321507  0.013358  0.000000
  0.306764  0.017478  0.000000
  0.308756  0.026989  0.000000
  0.279796  0.022644  0.000000
  0.271458  0.014082  0.000000
  0.275601  0.032480  0.000000
  0.247191  0.038868  0.000000
  0.247300  0.043308  0.000000
  0.235862  0.051697  0.000000
  0.228416  0.034630  0.000000
  0.227610  0.046199  0.000000
  0.194565  0.050109  0.000000
  0.210602  0.043391  0.000000
  0.210837  0.054229  0.000000
  0.202636  0.061465  0.000000
  0.191673  0.066501  0.000000
  0.186340  0.072057  0.000000
  0.175596  0.072321  0.000000
  0.174736  0.078899  0.000000
  0.167940  0.083574  0.000000
  0.168904  0.090510  0.000000
  0.159116  0.094500  0.000000
  0.157533  0.102674  0.000000
  0.150505  0.108931  0.000000
  0.144524  0.115453  0.000000
  0.140492  0.120878  0.000000
  0.363887  0.010969  0.000000
  0.321661  0.011758  0.000000
  0.372689  0.013061  0.000000
  0.340802  0.015769  0.000000
  0.378067  0.028726  0.000000
  0.345558  0.010593  0.000000
  0.375804  0.026408  0.000000
  0.322761  0.030242  0.000000
  0.302395  0.035270  0.000000
  0.288952  0.033073  0.000000
  0.286667  0.039949  0.000000
  0.278353  0.044797  0.000000
  0.235558  0.038207  0.000000
  0.259898  0.030258  0.000000
  0.264272  0.038136  0.000000
  0.256419  0.044476  0.000000
  0.233767  0.060782  0.000000
  0.225680  0.050657  0.000000
  0.225520  0.065380  0.000000
  0.214582  0.055467  0.000000
  0.218561  0.064905  0.000000
  0.202936  0.071547  0.000000
  0.207625  0.074756  0.000000
  0.187912  0.080197  0.000000
  0.189466  0.087174  0.000000
  0.181374  0.090574  0.000000
  0.176957  0.099466  0.000000
  0.172132  0.102975  0.000000
  0.162287  0.110320  0.000000
  0.160991  0.113731  0.000000
  0.404207  0.010624  0.000000
  0.367068  0.019090  0.000000
  0.428018  0.015169  0.000000
  0.390739  0.012310  0.000000
  0.422510  0.010493  0.000000
  0.381642  0.010695  0.000000
  0.399091  0.016015  0.000000
  0.385816  0.018345  0.000000
  0.356654  0.028264  0.000000
  0.339686  0.032777  0.000000
  0.353618  0.012219  0.000000
  0.317225  0.023882  0.000000
  0.313177  0.038213  0.000000
  0.315169  0.051921  0.000000
  0.305419  0.044419  0.000000
  0.277374  0.051877  0.000000
  0.268041  0.046103  0.000000
  0.260638  0.054929  0.000000
  0.260920  0.062187  0.000000
  0.247212  0.055859  0.000000
  0.242490  0.068077  0.000000
  0.233383  0.072738  0.000000
  0.217887  0.073657  0.000000
  0.220069  0.083001  0.000000
  0.199909  0.084012  0.000000
  0.205755  0.084409  0.000000
  0.193302  0.096252  0.000000
  0.184903  0.106756  0.000000
  0.185329  0.116525  0.000000
  0.175695  0.112851  0.000000
  0.483443  0.012031  0.000000
  0.451438  0.015226  0.000000
  0.490941  0.011968  0.000000
  0.464467  0.011827  0.000000
  0.476399  0.012434  0.000000
  0.443714  0.011411  0.000000
  0.439309  0.011985  0.000000
  0.414218  0.020493  0.000000
  0.412355  0.012664  0.000000
  0.398085  0.026612  0.000000
  0.391597  0.037170  0.000000
  0.356394  0.021952  0.000000
  0.344797  0.026230  0.000000
  0.338056  0.039590  0.000000
  0.326684  0.033315  0.000000
  0.319456  0.043852  0.000000
  0.310820  0.054732  0.000000
  0.296129  0.044150  0.000000
  0.300792  0.058446  0.000000
  0.290316  0.051535  0.000000
  0.270642  0.057523  0.000000
  0.278515  0.066785  0.000000
  0.245655  0.058328  0.000000
  0.253262  0.074509  0.000000
  0.237041  0.079167  0.000000
  0.224928  0.083857  0.000000
  0.215621  0.093466  0.000000
  0.209617  0.095394  0.000000
  0.198604  0.100571  0.000000
  0.192608  0.106498  0.000000
  0.583279  0.011249  0.000000
  0.540440  0.017332  0.000000
  0.542312  0.014358  0.000000
  0.519083  0.012373  0.000000
  0.532876  0.010129  0.000000
  0.502845  0.012891  0.000000
  0.475281  0.025896  0.000000
  0.479839  0.022436  0.000000
  0.462563  0.012469  0.000000
  0.441721  0.025918  0.000000
  0.425094  0.021219  0.000000
  0.408875  0.028842  0.000000
  0.396013  0.029362  0.000000
  0.404203  0.044924  0.000000
  0.362010  0.039841  0.000000
  0.363796  0.044775  0.000000
  0.354025  0.034501  0.000000
  0.332453  0.013029  0.000000
  0.333814  0.023550  0.000000
  0.350891  0.046250  0.000000
  0.330590  0.049515  0.000000
  0.311081  0.066988  0.000000
  0.292860  0.057273  0.000000
  0.267093  0.067944  0.000000
  0.259448  0.073565  0.000000
  0.249244  0.078857  0.000000
  0.237215  0.086776  0.000000
  0.232301  0.091662  0.000000
  0.224568  0.109398  0.000000
  0.209236  0.106030  0.000000
  0.622403  0.013941  0.000000
  0.590356  0.013863  0.000000
  0.602992  0.010580  0.000000
  0.576768  0.012765  0.000000
  0.595331  0.031923  0.000000
  0.557045  0.011254  0.000000
  0.526316  0.025763  0.000000
  0.534315  0.034696  0.000000
  0.492955  0.023809  0.000000
  0.521826  0.029155  0.000000
  0.497673  0.028599  0.000000
  0.466974  0.027724  0.000000
  0.448529  0.026929  0.000000
  0.459438  0.040540  0.000000
  0.430920  0.029083  0.000000
  0.414428  0.034435  0.000000
  0.419073  0.050459  0.000000
  0.384833  0.042578  0.000000
  0.386061  0.048972  0.000000
  0.374754  0.035613  0.000000
  0.354875  0.053371  0.000000
  0.335241  0.045039  0.000000
  0.331545  0.057969  0.000000
  0.304056  0.072772  0.000000
  0.292990  0.068069  0.000000
  0.279206  0.075616  0.000000
  0.266286  0.084763  0.000000
  0.257138  0.088527  0.000000
  0.240485  0.100594  0.000000
  0.233131  0.099884  0.000000
  0.658256  0.010599  0.000000
  0.650826  0.022410  0.000000
  0.655896  0.018524  0.000000
  0.638649  0.013383  0.000000
  0.619497  0.030185  0.000000
  0.611690  0.012025  0.000000
  0.567114  0.013000  0.000000
  0.580871  0.038549  0.000000
  0.540882  0.026664  0.000000
  0.555360  0.014150  0.000000
  0.546434  0.031955  0.000000
  0.509527  0.011607  0.000000
  0.524845  0.013579  0.000000
  0.516409  0.024117  0.000000
  0.456797  0.022285  0.000000
  0.475324  0.037867  0.000000
  0.466310  0.035192  0.000000
  0.432558  0.032859  0.000000
  0.433024  0.046719  0.000000
  0.415641  0.037630  0.000000
  0.398353  0.042846  0.000000
  0.372520  0.044974  0.000000
  0.360774  0.061363  0.000000
  0.345279  0.057398  0.000000
  0.321746  0.061839  0.000000
  0.316177  0.071011  0.000000
  0.287624  0.068781  0.000000
  0.276486  0.077699  0.000000
  0.267413  0.096545  0.000000
  0.251664  0.091833  0.000000
  0.673348  0.018849  0.000000
  0.667901  0.010414  0.000000
  0.665857  0.028606  0.000000
  0.665472  0.064260  0.000000
  0.645848  0.010636  0.000000
  0.629638  0.010052  0.000000
  0.646565  0.029284  0.000000
  0.628913  0.031583  0.000000
  0.600446  0.017702  0.000000
  0.617092  0.017131  0.000000
  0.609006  0.028001  0.000000
  0.585533  0.030801  0.000000
  0.565277  0.028400  0.000000
  0.585955  0.021866  0.000000
  0.552654  0.036856  0.000000
  0.525491  0.042776  0.000000
  0.508213  0.041683  0.000000
  0.501660  0.019413  0.000000
  0.490140  0.034718  0.000000
  0.464943  0.050952  0.000000
  0.450145  0.035449  0.000000
  0.427215  0.041322  0.000000
  0.401193  0.054565  0.000000
  0.394591  0.063124  0.000000
  0.376606  0.054630  0.000000
  0.350118  0.063846  0.000000
  0.330687  0.063164  0.000000
  0.309083  0.083741  0.000000
  0.297587  0.083895  0.000000
  0.270482  0.086866  0.000000
  0.682361  0.045165  0.000000
  0.685660  0.078509  0.000000
  0.682367  0.020751  0.000000
  0.681673  0.035593  0.000000
  0.657710  0.100819  0.000000
  0.665484  0.025787  0.000000
  0.671315  0.043573  0.000000
  0.660959  0.045320  0.000000
  0.662940  0.086789  0.000000
  0.657587  0.043853  0.000000
  0.636420  0.020328  0.000000
  0.628940  0.027041  0.000000
  0.623437  0.042996  0.000000
  0.613312  0.036464  0.000000
  0.601925  0.027249  0.000000
  0.599088  0.040600  0.000000
  0.562079  0.036900  0.000000
  0.555004  0.025591  0.000000
  0.531431  0.040571  0.000000
  0.510733  0.034975  0.000000
  0.479937  0.045730  0.000000
  0.473553  0.046788  0.000000
  0.448413  0.041970  0.000000
  0.442550  0.063382  0.000000
  0.402718  0.062038  0.000000
  0.384298  0.057588  0.000000
  0.370537  0.063439  0.000000
  0.342392  0.069613  0.000000
  0.318096  0.079002  0.000000
  0.298019  0.079715  0.000000
  0.689504  0.033318  0.000000
  0.671712  0.151226  0.000000
  0.686193  0.064880  0.000000
  0.689085  0.022985  0.000000
  0.690435  0.057974  0.000000
  0.687633  0.011204  0.000000
  0.679255  0.011345  0.000000
  0.682322  0.058888  0.000000
  0.660600  0.064762  0.000000
  0.665420  0.091606  0.000000
  0.673200  0.067579  0.000000
  0.671156  0.036164  0.000000
  0.673046  0.056108  0.000000
  0.667286  0.078670  0.000000
  0.642834  0.033041  0.000000
  0.639283  0.041332  0.000000
  0.620322  0.046723  0.000000
  0.597409  0.050940  0.000000
  0.576863  0.031321  0.000000
  0.567193  0.042916  0.000000
  0.548174  0.044926  0.000000
  0.536562  0.060457  0.000000
  0.495183  0.050908  0.000000
  0.493482  0.039074  0.000000
  0.454685  0.051684  0.000000
  0.439820  0.044127  0.000000
  0.412301  0.062477  0.000000
  0.381583  0.065967  0.000000
  0.339349  0.076003  0.000000
  0.332110  0.075053  0.000000
  0.660440  0.138713  0.000000
  0.688841  0.104149  0.000000
  0.688401  0.044069  0.000000
  0.642770  0.217600  0.000000
  0.677283  0.207671  0.000000
  0.656608  0.170474  0.000000
  0.680398  0.192058  0.000000
  0.687301  0.094884  0.000000
  0.684144  0.108853  0.000000
  0.690264  0.128427  0.000000
  0.672883  0.088978  0.000000
  0.688111  0.076247  0.000000
  0.680727  0.090391  0.000000
  0.662288  0.105199  0.000000
  0.652798  0.039732  0.000000
  0.676640  0.077173  0.000000
  0.647060  0.050363  0.000000
  0.646310  0.074417  0.000000
  0.624580  0.063002  0.000000
  0.619526  0.054463  0.000000
  0.583377  0.055961  0.000000
  0.568491  0.020169  0.000000
  0.577060  0.047806  0.000000
  0.510797  0.053913  0.000000
  0.503635  0.052394  0.000000
  0.490279  0.049557  0.000000
  0.451073  0.056155  0.000000
  0.414935  0.050249  0.000000
  0.375455  0.073722  0.000000
  0.366465  0.070202  0.000000
  0.606041  0.266150  0.000000
  0.678568  0.126141  0.000000
  0.597206  0.237898  0.000000
  0.688895  0.426286  0.000000
  0.593062  0.262091  0.000000
  0.647265  0.234496  0.000000
  0.665097  0.164135  0.000000
  0.688775  0.168402  0.000000
  0.686019  0.219600  0.000000
  0.678128  0.166577  0.000000
  0.676684  0.222834  0.000000
  0.688948  0.146123  0.000000
  0.666327  0.146953  0.000000
  0.685936  0.144244  0.000000
  0.686639  0.123909  0.000000
  0.667532  0.112161  0.000000
  0.678021  0.109527  0.000000
  0.655373  0.065219  0.000000
  0.637704  0.059506  0.000000
  0.646287  0.056631  0.000000
  0.635444  0.052184  0.000000
  0.605828  0.043368  0.000000
  0.588779  0.045817  0.000000
  0.567717  0.047734  0.000000
  0.541713  0.049396  0.000000
  0.524366  0.048606  0.000000
  0.474355  0.058902  0.000000
  0.437081  0.056981  0.000000
  0.425494  0.057146  0.000000
  0.394513  0.072099  0.000000
 -0.010000  0.500000  0.000000
 -0.010000  0.490000  0.000000
 -0.010000  0.480000  0.000000
 -0.010000  0.470000  0.000000
 -0.010000  0.460000  0.000000
 -0.010000  0.450000  0.000000
 -0.010000  0.440000  0.000000
 -0.010000  0.430000  0.000000
 -0.010000  0.420000  0.000000
 -0.010000  0.410000  0.000000
 -0.010000  0.400000  0.000000
 -0.010000  0.390000  0.000000
 -0.010000  0.380000  0.000000
 -0.010000  0.370000  0.000000
 -0.010000  0.360000  0.000000
 -0.010000  0.350000  0.000000
 -0.010000  0.340000  0.000000
 -0.010000  0.330000  0.000000
 -0.010000  0.320000  0.000000
 -0.010000  0.310000  0.000000
 -0.010000  0.300000  0.000000
 -0.010000  0.290000  0.000000
 -0.010000  0.280000  0.000000
 -0.010000  0.270000  0.000000
 -0.010000  0.260000  0.000000
 -0.010000  0.250000  0.000000
 -0.010000  0.240000  0.000000
 -0.010000  0.230000  0.000000
 -0.010000  0.220000  0.000000
 -0.010000  0.210000  0.000000
 -0.010000  0.200000  0.000000
 -0.010000  0.190000  0.000000
 -0.010000  0.180000  0.000000
 -0.010000  0.170000  0.000000
 -0.010000  0.160000  0.000000
 -0.010000  0.150000  0.000000
 -0.010000  0.140000  0.000000
 -0.010000  0.130000  0.000000
 -0.010000  0.120000  0.000000
 -0.010000  0.110000  0.000000
 -0.010000  0.100000  0.000000
 -0.010000  0.090000  0.000000
 -0.010000  0.080000  0.000000
 -0.010000  0.070000  0.000000
 -0.010000  0.060000  0.000000
 -0.010000  0.050000  0.000000
 -0.010000  0.040000  0.000000
 -0.010000  0.030000  0.000000
 -0.010000  0.020000  0.000000
 -0.010000  0.010000  0.000000
 -0.100000 -0.010000  0.000000
 -0.090000 -0.010000  0.000000
 -0.080000 -0.010000  0.000000
 -0.070000 -0.010000  0.000000
 -0.060000 -0.010000  0.000000
 -0.050000 -0.010000  0.000000
 -0.040000 -0.010000  0.000000
 -0.030000 -0.010000  0.000000