<?xml version="1.0" encoding="UTF-8"?>
<VTKFile type="UnstructuredGrid" version="1.0" byte_order="LittleEndian">
<UnstructuredGrid>
  <Piece NumberOfPoints="1533" NumberOfCells="1533">
      <PointData>
        <DataArray type="Int32" Name="Type" format="ascii">
 1 1 1 1 1 1 1 1 1 1
 1 1 1 1 1 1 1 1 1 1
 1 1 1 1 1 1 1 1 1 1
 1 1 1 1 1 1 1 1 1 1
 1 1 1 1 1 1 1 1 1 1
 1 1 1 1 1 1 1 1 1 1
 1 3 3 3 3 3 3 3 3 3
 3 3 3 3 3 3 3 3 3 3
 3 3 3 3 3 3 3 3 3 3
 3 3 3 3 3 3 3 3 3 3
 3 3 3 3 3 3 3 3 3 3
 3 3 3 3 3 3 3 3 3 3
 3 3 3 3 3 3 3 3 3 3
 1 1 1 1 1 1 1 1 1 1
 1 1 1 1 1 1 1 1 1 1
 1 1 1 1 1 1 1 1 1 1
 1 1 1 1 1 1 1 1 1 1
 1 1 1 1 1 1 1 1 1 1
 1 1 1 1 1 1 1 1 1 1
 1 2 2 2 2 2 2 2 2 2
 2 2 2 2 2 2 2 2 2 2
 2 2 2 2 2 2 2 2 2 2
 2 2 2 2 2 2 2 2 2 2
 2 2 2 2 2 2 2 2 2 2
 2 2 2 2 2 2 2 2 2 2
 2 2 2 2 2 2 2 2 2 2
 2 2 2 2 2 2 2 2 2 2
 2 2 2 2 2 2 2 2 2 2
 2 2 2 2 2 2 2 2 2 2
 2 2 2 2 2 2 2 2 2 2
 2 2 2 2 2 2 2 2 2 2
 2 2 2 2 2 2 2 2 2 2
 2 2 2 2 2 2 2 2 2 2
 2 2 2 2 2 2 2 2 2 2
 2 2 2 2 2 2 2 2 2 2
 2 2 2 2 2 2 2 2 2 2
 2 2 2 2 2 2 2 2 2 2
 2 2 2 2 2 2 2 2 2 2
 2 2 2 2 2 2 2 2 2 2
 2 2 2 2 2 2 2 2 2 2
 2 2 2 2 2 2 2 2 2 2
 2 2 2 2 2 2 2 2 2 2
 2 2 2 2 2 2 2 2 2 2
 2 2 2 2 2 2 2 2 2 2
 2 2 2 2 2 2 2 2 2 2
 2 2 2 2 2 2 2 2 2 2
 2 2 2 2 2 2 2 2 2 2
 2 2 2 2 2 2 2 2 2 2
 2 2 2 2 2 2 2 2 2 2
 2 2 2 2 2 2 2 2 2 2
 2 2 2 2 2 2 2 2 2 2
 2 2 2 2 2 2 2 2 2 2
 2 2 2 2 2 2 2 2 2 2
 2 2 2 2 2 2 2 2 2 2
 2 2 2 2 2 2 2 2 2 2
 2 2 2 2 2 2 2 2 2 2
 2 2 2 2 2 2 2 2 2 2
 2 2 2 2 2 2 2 2 2 2
 2 2 2 2 2 2 2 2 2 2
 2 2 2 2 2 2 2 2 2 2
 2 2 2 2 2 2 2 2 2 2
 2 2 2 2 2 2 2 2 2 2
 2 2 2 2 2 2 2 2 2 2
 2 2 2 2 2 2 2 2 2 2
 2 2 2 2 2 2 2 2 2 2
 2 2 2 2 2 2 2 2 2 2
 2 2 2 2 2 2 2 2 2 2
 2 2 2 2 2 2 2 2 2 2
 2 2 2 2 2 2 2 2 2 2
 2 2 2 2 2 2 2 2 2 2
 2 2 2 2 2 2 2 2 2 2
 2 2 2 2 2 2 2 2 2 2
 2 2 2 2 2 2 2 2 2 2
 2 2 2 2 2 2 2 2 2 2
 2 2 2 2 2 2 2 2 2 2
 2 2 2 2 2 2 2 2 2 2
 2 2 2 2 2 2 2 2 2 0
 0 0 0 0 0 0 0 0 0 0
 0 0 0 0 0 0 0 0 0 0
 0 0 0 0 0 0 0 0 0 0
 0 0 0 0 0 0 0 0 0 0
 0 0 0 0 0 0 0 0 0 0
 0 0 0 0 0 0 0 0 0 0
 0 0 0 0 0 0 0 0 0 0
 0 0 0 0 0 0 0 0 0 0
 0 0 0 0 0 0 0 0 0 0
 0 0 0 0 0 0 0 0 0 0
 0 0 0 0 0 0 0 0 0 0
 0 0 0 0 0 0 0 0 0 0
 0 0 0 0 0 0 0 0 0 0
 0 0 0 0 0 0 0 0 0 0
 0 0 0 0 0 0 0 0 0 0
 0 0 0 0 0 0 0 0 0 0
 0 0 0 0 0 0 0 0 0 0
 0 0 0 0 0 0 0 0 0 0
 0 0 0 0 0 0 0 0 0 0
 0 0 0 0 0 0 0 0 0 0
 0 0 0 0 0 0 0 0 0 0
 0 0 0 0 0 0 0 0 0 0
 0 0 0 0 0 0 0 0 0 0
 0 0 0 0 0 0 0 0 0 0
 0 0 0 0 0 0 0 0 0 0
 0 0 0 0 0 0 0 0 0 0
 0 0 0 0 0 0 0 0 0 0
 0 0 0 0 0 0 0 0 0 0
 0 0 0 0 0 0 0 0 0 0
 0 0 0 0 0 0 0 0 0 0
 0 0 0 0 0 0 0 0 0 0
 0 0 0 0 0 0 0 0 0 0
 0 0 0 0 0 0 0 0 0 0
 0 0 0 0 0 0 0 0 0 0
 0 0 0 0 0 0 0 0 0 0
 0 0 0 0 0 0 0 0 0 0
 0 0 0 0 0 0 0 0 0 0
 0 0 0 0 0 0 0 0 0 0
 0 0 0 0 0 0 0 0 0 0
 0 0 0 0 0 0 0 0 0 0
 0 0 0 0 0 0 0 0 0 0
 0 0 0 0 0 0 0 0 0 0
 0 0 0 0 0 0 0 0 0 0
 0 0 0 0 0 0 0 0 0 0
 0 0 0 0 0 0 0 0 0 0
 0 0 0 0 0 0 0 0 0 0
 0 0 0 0 0 0 0 0 0 0
 0 0 0 0 0 0 0 0 0 0
 0 0 0 0 0 0 0 0 0 0
 0 0 0 0 0 0 0 0 0 0
 0 0 0 0 0 0 0 0 0 0
 0 0 0 0 0 0 0 0 0 0
 0 0 0 0 0 0 0 0 0 0
 0 0 0 0 0 0 0 0 0 0
 0 0 0 0 0 0 0 0 0 0
 0 0 0 0 0 0 0 0 0 0
 0 0 0 0 0 0 0 0 0 0
 0 0 0 0 0 0 0 0 0 0
 0 0 0 0 0 0 0 0 0 0
 0 0 0 0 0 0 0 0 0 0
 0 0 0 0 0 0 0 0 0 0
 0 0 0 0 0 0 0 0 0 0
 0 0 0 0 0 0 0 0 0 0
 0 0 0 0 0 0 0 0 0 0
 0 0 0 0 0 0 0 0 0 0
 0 0 0 0 0 0 0 0 0 0
 0 0 0 0 0 0 0 0 0 0
 0 0 0 0 0 0 0 0 0 0
 0 0 0 0 0 0 0 0 0 0
 0 0 0 0 0 0 0 0 0 0
 0 0 0 0 0 0 0 0 0 0
 0 0 0 0 0 0 0 0 0 0
 0 0 0 0 0 0 0 0 0 0
 0 0 0 0 0 0 0 0 0 0
 0 0 0 0 0 0 0 0 0 0
 0 0 0 0 0 0 0 0 0 0
 0 0 0
        </DataArray>
      </PointData>
      <Points>
        <DataArray type="Float32" NumberOfComponents="3" format="ascii">
  0.000000  0.500000  0.000000
  0.000000  0.490000  0.000000
  0.000000  0.480000  0.000000
  0.000000  0.470000  0.000000
  0.000000  0.460000  0.000000
  0.000000  0.450000  0.000000
  0.000000  0.440000  0.000000
  0.000000  0.430000  0.000000
  0.000000  0.420000  0.000000
  0.000000  0.410000  0.000000
  0.000000  0.400000  0.000000
  0.000000  0.390000  0.000000
  0.000000  0.380000  0.000000
  0.000000  0.370000  0.000000
  0.000000  0.360000  0.000000
  0.000000  0.350000  0.000000
  0.000000  0.340000  0.000000
  0.000000  0.330000  0.000000
  0.000000  0.320000  0.000000
  0.000000  0.310000  0.000000
  0.000000  0.300000  0.000000
  0.000000  0.290000  0.000000
  0.000000  0.280000  0.000000
  0.000000  0.270000  0.000000
  0.000000  0.260000  0.000000
  0.000000  0.250000  0.000000
  0.000000  0.240000  0.000000
  0.000000  0.230000  0.000000
  0.000000  0.220000  0.000000
  0.000000  0.210000  0.000000
  0.000000  0.200000  0.000000
  0.000000  0.190000  0.000000
  0.000000  0.180000  0.000000
  0.000000  0.170000  0.000000
  0.000000  0.160000  0.000000
  0.000000  0.150000  0.000000
  0.000000  0.140000  0.000000
  0.000000  0.130000  0.000000
  0.000000  0.120000  0.000000
  0.000000  0.110000  0.000000
  0.000000  0.100000  0.000000
  0.000000  0.090000  0.000000
  0.000000  0.080000  0.000000
  0.000000  0.070000  0.000000
  0.000000  0.060000  0.000000
  0.000000  0.050000  0.000000
  0.000000  0.040000  0.000000
  0.000000  0.030000  0.000000
  0.000000  0.020000  0.000000
  0.000000  0.010000  0.000000
 -0.100000  0.000000  0.000000
 -0.090000  0.000000  0.000000
 -0.080000  0.000000  0.000000
 -0.070000  0.000000  0.000000
 -0.060000  0.000000  0.000000
 -0.050000  0.000000  0.000000
 -0.040000  0.000000  0.000000
 -0.030000  0.000000  0.000000
 -0.020000  0.000000  0.000000
 -0.010000  0.000000  0.000000
 -0.000000  0.000000  0.000000
  0.010000  0.000000  0.000000
  0.020000  0.000000  0.000000
  0.030000  0.000000  0.000000
  0.040000  0.000000  0.000000
  0.050000  0.000000  0.000000
  0.060000  0.000000  0.000000
  0.070000  0.000000  0.000000
  0.080000  0.000000  0.000000
  0.090000  0.000000  0.000000
  0.100000  0.000000  0.000000
  0.110000  0.000000  0.000000
  0.120000  0.000000  0.000000
  0.130000  0.000000  0.000000
  0.140000  0.000000  0.000000
  0.150000  0.000000  0.000000
  0.160000  0.000000  0.000000
  0.170000  0.000000  0.000000
  0.180000  0.000000  0.000000
  0.190000  0.000000  0.000000
  0.200000  0.000000  0.000000
  0.210000  0.000000  0.000000
  0.220000  0.000000  0.000000
  0.230000  0.000000  0.000000
  0.240000  0.000000  0.000000
  0.250000  0.000000  0.000000
  0.260000  0.000000  0.000000
  0.270000  0.000000  0.000000
  0.280000  0.000000  0.000000
  0.290000  0.000000  0.000000
  0.300000  0.000000  0.000000
  0.310000  0.000000  0.000000
  0.320000  0.000000  0.000000
  0.330000  0.000000  0.000000
  0.340000  0.000000  0.000000
  0.350000  0.000000  0.000000
  0.360000  0.000000  0.000000
  0.370000  0.000000  0.000000
  0.380000  0.000000  0.000000
  0.390000  0.000000  0.000000
  0.400000  0.000000  0.000000
  0.410000  0.000000  0.000000
  0.420000  0.000000  0.000000
  0.430000  0.000000  0.000000
  0.440000  0.000000  0.000000
  0.450000  0.000000  0.000000
  0.460000  0.000000  0.000000
  0.470000  0.000000  0.000000
  0.480000  0.000000  0.000000
  0.490000  0.000000  0.000000
  0.500000  0.000000  0.000000
  0.510000  0.000000  0.000000
  0.520000  0.000000  0.000000
  0.530000  0.000000  0.000000
  0.540000  0.000000  0.000000
  0.550000  0.000000  0.000000
  0.560000  0.000000  0.000000
  0.570000  0.000000  0.000000
  0.580000  0.000000  0.000000
  0.590000  0.000000  0.000000
  0.600000  0.000000  0.000000
  0.610000  0.000000  0.000000
  0.620000  0.000000  0.000000
  0.630000  0.000000  0.000000
  0.640000  0.000000  0.000000
  0.650000  0.000000  0.000000
  0.660000  0.000000  0.000000
  0.670000  0.000000  0.000000
  0.680000  0.000000  0.000000
  0.690000  0.000000  0.000000
  0.700000  0.000000  0.000000
  0.710000  0.000000  0.000000
  0.720000  0.000000  0.000000
  0.730000  0.000000  0.000000
  0.740000  0.000000  0.000000
  0.750000  0.000000  0.000000
  0.760000  0.000000  0.000000
  0.770000  0.000000  0.000000
  0.780000  0.000000  0.000000
  0.790000  0.000000  0.000000
  0.800000  0.000000  0.000000
  0.700000  0.010000  0.000000
  0.700000  0.020000  0.000000
  0.700000  0.030000  0.000000
  0.700000  0.040000  0.000000
  0.700000  0.050000  0.000000
  0.700000  0.060000  0.000000
  0.700000  0.070000  0.000000
  0.700000  0.080000  0.000000
  0.700000  0.090000  0.000000
  0.700000  0.100000  0.000000
  0.700000  0.110000  0.000000
  0.700000  0.120000  0.000000
  0.700000  0.130000  0.000000
  0.700000  0.140000  0.000000
  0.700000  0.150000  0.000000
  0.700000  0.160000  0.000000
  0.700000  0.170000  0.000000
  0.700000  0.180000  0.000000
  0.700000  0.190000  0.000000
  0.700000  0.200000  0.000000
  0.700000  0.210000  0.000000
  0.700000  0.220000  0.000000
  0.700000  0.230000  0.000000
  0.700000  0.240000  0.000000
  0.700000  0.250000  0.000000
  0.700000  0.260000  0.000000
  0.700000  0.270000  0.000000
  0.700000  0.280000  0.000000
  0.700000  0.290000  0.000000
  0.700000  0.300000  0.000000
  0.700000  0.310000  0.000000
  0.700000  0.320000  0.000000
  0.700000  0.330000  0.000000
  0.700000  0.340000  0.000000
  0.700000  0.350000  0.000000
  0.700000  0.360000  0.000000
  0.700000  0.370000  0.000000
  0.700000  0.380000  0.000000
  0.700000  0.390000  0.000000
  0.700000  0.400000  0.000000
  0.700000  0.410000  0.000000
  0.700000  0.420000  0.000000
  0.700000  0.430000  0.000000
  0.700000  0.440000  0.000000
  0.700000  0.450000  0.000000
  0.700000  0.460000  0.000000
  0.700000  0.470000  0.000000
  0.700000  0.480000  0.000000
  0.700000  0.490000  0.000000
  0.700000  0.500000  0.000000
  0.022628  0.009022  0.000000
  0.025692  0.014394  0.000000
  0.050748  0.016612  0.000000
  0.010014  0.009755  0.000000
  0.064081  0.018585  0.000000
  0.011018  0.017783  0.000000
  0.076801  0.025191  0.000000
  0.068524  0.010038  0.000000
  0.109489  0.024287  0.000000
  0.092836  0.026042  0.000000
  0.097440  0.029857  0.000000
  0.013505  0.024756  0.000000
  0.032618  0.032755  0.000000
  0.008273  0.033629  0.000000
  0.014367  0.042224  0.000000
  0.023255  0.040050  0.000000
  0.057271  0.047246  0.000000
  0.010110  0.048089  0.000000
  0.057052  0.038842  0.000000
  0.016135  0.055501  0.000000
  0.028506  0.047488  0.000000
  0.021284  0.064580  0.000000
  0.008619  0.062052  0.000000
  0.015207  0.076138  0.000000
  0.011216  0.071046  0.000000
  0.039292  0.076175  0.000000
  0.024218  0.079719  0.000000
  0.026276  0.074678  0.000000
  0.031357  0.063826  0.000000
  0.044797  0.076200  0.000000
  0.057010  0.008991  0.000000
  0.036468  0.010859  0.000000
  0.076277  0.011309  0.000000
  0.079660  0.022467  0.000000
  0.103440  0.010469  0.000000
  0.118818  0.014700  0.000000
  0.131279  0.008677  0.000000
  0.085477  0.009561  0.000000
  0.109133  0.019748  0.000000
  0.090994  0.018160  0.000000
  0.057503  0.031548  0.000000
  0.044183  0.009866  0.000000
  0.088296  0.036273  0.000000
  0.036333  0.021380  0.000000
  0.068778  0.033746  0.000000
  0.020081  0.030352  0.000000
  0.027070  0.023559  0.000000
  0.044755  0.024767  0.000000
  0.071383  0.043619  0.000000
  0.037222  0.037669  0.000000
  0.081531  0.044617  0.000000
  0.047105  0.031958  0.000000
  0.025801  0.054417  0.000000
  0.043147  0.056031  0.000000
  0.037702  0.064036  0.000000
  0.057573  0.066652  0.000000
  0.038575  0.047462  0.000000
  0.048588  0.062148  0.000000
  0.053020  0.073154  0.000000
  0.069129  0.076806  0.000000
  0.170521  0.008672  0.000000
  0.116535  0.008832  0.000000
  0.159861  0.010386  0.000000
  0.127888  0.020152  0.000000
  0.147930  0.008550  0.000000
  0.196228  0.010252  0.000000
  0.226823  0.010318  0.000000
  0.163690  0.022542  0.000000
  0.131928  0.026609  0.000000
  0.096768  0.010560  0.000000
  0.146820  0.026569  0.000000
  0.136841  0.013944  0.000000
  0.111979  0.035400  0.000000
  0.119660  0.058568  0.000000
  0.146231  0.043639  0.000000
  0.059844  0.022875  0.000000
  0.095133  0.042639  0.000000
  0.077677  0.035264  0.000000
  0.070537  0.051731  0.000000
  0.046819  0.044946  0.000000
  0.088210  0.053094  0.000000
  0.080847  0.064794  0.000000
  0.077739  0.056654  0.000000
  0.056612  0.053738  0.000000
  0.069526  0.067535  0.000000
  0.065334  0.060131  0.000000
  0.068522  0.078877  0.000000
  0.082781  0.086209  0.000000
  0.088822  0.066615  0.000000
  0.057859  0.081548  0.000000
  0.216447  0.014760  0.000000
  0.184176  0.009259  0.000000
  0.229680  0.013506  0.000000
  0.186902  0.014743  0.000000
  0.222649  0.039176  0.000000
  0.209071  0.010321  0.000000
  0.203228  0.035239  0.000000
  0.202904  0.016068  0.000000
  0.181074  0.026778  0.000000
  0.119505  0.028874  0.000000
  0.193658  0.028477  0.000000
  0.144837  0.016897  0.000000
  0.157448  0.031029  0.000000
  0.102965  0.038814  0.000000
  0.113148  0.050711  0.000000
  0.171945  0.016698  0.000000
  0.121041  0.037152  0.000000
  0.135184  0.031714  0.000000
  0.120996  0.045917  0.000000
  0.129137  0.052815  0.000000
  0.150774  0.047162  0.000000
  0.106766  0.047529  0.000000
  0.094498  0.053297  0.000000
  0.133511  0.059094  0.000000
  0.105576  0.061889  0.000000
  0.090079  0.069168  0.000000
  0.099732  0.079344  0.000000
  0.102058  0.060472  0.000000
  0.090469  0.083704  0.000000
  0.110325  0.072133  0.000000
  0.258424  0.011008  0.000000
  0.241030  0.012165  0.000000
  0.246650  0.011442  0.000000
  0.218109  0.022218  0.000000
  0.308916  0.016794  0.000000
  0.216144  0.029250  0.000000
  0.206078  0.024814  0.000000
  0.233837  0.024055  0.000000
  0.192890  0.024066  0.000000
  0.251287  0.031373  0.000000
  0.175033  0.024655  0.000000
  0.229492  0.029925  0.000000
  0.212242  0.038053  0.000000
  0.190014  0.041020  0.000000
  0.202688  0.053738  0.000000
  0.156297  0.018093  0.000000
  0.176085  0.035680  0.000000
  0.147292  0.032614  0.000000
  0.172503  0.050304  0.000000
  0.132930  0.041312  0.000000
  0.137234  0.046527  0.000000
  0.160828  0.042241  0.000000
  0.146694  0.060235  0.000000
  0.101314  0.075105  0.000000
  0.144203  0.073626  0.000000
  0.121138  0.065327  0.000000
  0.134699  0.071605  0.000000
  0.164542  0.073067  0.000000
  0.141519  0.079331  0.000000
  0.118184  0.071003  0.000000
  0.306526  0.010810  0.000000
  0.279430  0.012867  0.000000
  0.333716  0.015258  0.000000
  0.306654  0.030157  0.000000
  0.356740  0.011763  0.000000
  0.308279  0.037041  0.000000
  0.323373  0.010863  0.000000
  0.293585  0.010548  0.000000
  0.295857  0.014722  0.000000
  0.325402  0.024291  0.000000
  0.268206  0.021564  0.000000
  0.278647  0.011988  0.000000
  0.267265  0.011386  0.000000
  0.235548  0.039896  0.000000
  0.211833  0.051829  0.000000
  0.223420  0.044733  0.000000
  0.163479  0.035935  0.000000
  0.254168  0.037829  0.000000
  0.175158  0.042451  0.000000
  0.204061  0.043230  0.000000
  0.187680  0.039753  0.000000
  0.194566  0.050966  0.000000
  0.141285  0.063309  0.000000
  0.181795  0.070946  0.000000
  0.174275  0.061204  0.000000
  0.166761  0.052029  0.000000
  0.160468  0.061546  0.000000
  0.154820  0.055461  0.000000
  0.128456  0.079501  0.000000
  0.159119  0.068746  0.000000
  0.382232  0.015024  0.000000
  0.318852  0.013284  0.000000
  0.338078  0.011273  0.000000
  0.312231  0.025239  0.000000
  0.428037  0.022803  0.000000
  0.361917  0.011382  0.000000
  0.410677  0.013905  0.000000
  0.345382  0.011884  0.000000
  0.351768  0.022387  0.000000
  0.323579  0.028059  0.000000
  0.341043  0.024140  0.000000
  0.344448  0.031550  0.000000
  0.292767  0.023899  0.000000
  0.248284  0.022271  0.000000
  0.257174  0.019048  0.000000
  0.240064  0.027403  0.000000
  0.239584  0.041796  0.000000
  0.279890  0.031650  0.000000
  0.231110  0.057608  0.000000
  0.229508  0.051619  0.000000
  0.242745  0.053675  0.000000
  0.219045  0.060590  0.000000
  0.184903  0.056196  0.000000
  0.211481  0.059182  0.000000
  0.201720  0.067935  0.000000
  0.196393  0.088259  0.000000
  0.193345  0.076955  0.000000
  0.188579  0.059334  0.000000
  0.176351  0.070888  0.000000
  0.169634  0.075897  0.000000
  0.416781  0.011690  0.000000
  0.401916  0.012923  0.000000
  0.451469  0.027993  0.000000
  0.427538  0.010874  0.000000
  0.496423  0.027897  0.000000
  0.449074  0.012383  0.000000
  0.458456  0.019633  0.000000
  0.418903  0.021167  0.000000
  0.434167  0.012834  0.000000
  0.412258  0.027595  0.000000
  0.396545  0.011214  0.000000
  0.377604  0.008774  0.000000
  0.372807  0.022058  0.000000
  0.322422  0.039346  0.000000
  0.327693  0.042424  0.000000
  0.276906  0.026337  0.000000
  0.262784  0.029346  0.000000
  0.312349  0.050712  0.000000
  0.290150  0.026820  0.000000
  0.306036  0.044258  0.000000
  0.256499  0.050257  0.000000
  0.262300  0.041479  0.000000
  0.272360  0.049273  0.000000
  0.229084  0.066707  0.000000
  0.247965  0.047782  0.000000
  0.240087  0.065489  0.000000
  0.238116  0.074308  0.000000
  0.213466  0.076042  0.000000
  0.195427  0.066076  0.000000
  0.215553  0.070646  0.000000
  0.509211  0.009779  0.000000
  0.481847  0.012119  0.000000
  0.513074  0.020809  0.000000
  0.487784  0.010901  0.000000
  0.538518  0.030455  0.000000
  0.498207  0.013076  0.000000
  0.511187  0.026070  0.000000
  0.462561  0.015740  0.000000
  0.467083  0.009027  0.000000
  0.468798  0.030973  0.000000
  0.400671  0.024901  0.000000
  0.414831  0.036774  0.000000
  0.380871  0.028974  0.000000
  0.399293  0.030266  0.000000
  0.389105  0.015590  0.000000
  0.334051  0.032883  0.000000
  0.356947  0.025467  0.000000
  0.336755  0.050911  0.000000
  0.365660  0.050001  0.000000
  0.319832  0.048594  0.000000
  0.297199  0.034539  0.000000
  0.283816  0.040720  0.000000
  0.273524  0.048737  0.000000
  0.269698  0.035752  0.000000
  0.285797  0.047851  0.000000
  0.255414  0.071485  0.000000
  0.248136  0.062523  0.000000
  0.251584  0.071410  0.000000
  0.271154  0.062548  0.000000
  0.228620  0.074896  0.000000
  0.586943  0.019439  0.000000
  0.510727  0.035979  0.000000
  0.597502  0.016637  0.000000
  0.571258  0.010956  0.000000
  0.606242  0.034175  0.000000
  0.554533  0.010067  0.000000
  0.605579  0.022403  0.000000
  0.539260  0.018968  0.000000
  0.523960  0.025524  0.000000
  0.475458  0.016378  0.000000
  0.482679  0.039777  0.000000
  0.470012  0.025287  0.000000
  0.387118  0.028211  0.000000
  0.447560  0.010921  0.000000
  0.436726  0.020836  0.000000
  0.444584  0.025922  0.000000
  0.370455  0.036556  0.000000
  0.368823  0.017807  0.000000
  0.363944  0.031428  0.000000
  0.339053  0.039848  0.000000
  0.357885  0.037621  0.000000
  0.317350  0.063013  0.000000
  0.348609  0.045195  0.000000
  0.299961  0.052658  0.000000
  0.334178  0.066637  0.000000
  0.313081  0.062082  0.000000
  0.292337  0.043772  0.000000
  0.288653  0.062264  0.000000
  0.259302  0.057212  0.000000
  0.271986  0.063574  0.000000
  0.623364  0.038832  0.000000
  0.584342  0.039192  0.000000
  0.654550  0.017069  0.000000
  0.606478  0.009664  0.000000
  0.644968  0.026869  0.000000
  0.611627  0.017820  0.000000
  0.624769  0.014396  0.000000
  0.619766  0.011299  0.000000
  0.582069  0.011469  0.000000
  0.541022  0.012020  0.000000
  0.577900  0.020614  0.000000
  0.498636  0.017418  0.000000
  0.526133  0.013957  0.000000
  0.538049  0.052325  0.000000
  0.503126  0.055247  0.000000
  0.447764  0.036045  0.000000
  0.457233  0.039888  0.000000
  0.428657  0.035255  0.000000
  0.416689  0.036507  0.000000
  0.402528  0.066436  0.000000
  0.405519  0.056230  0.000000
  0.387720  0.047855  0.000000
  0.353136  0.043728  0.000000
  0.362542  0.067140  0.000000
  0.330912  0.056192  0.000000
  0.304287  0.061242  0.000000
  0.350096  0.067838  0.000000
  0.293715  0.058528  0.000000
  0.288787  0.072604  0.000000
  0.280111  0.064830  0.000000
  0.666319  0.031822  0.000000
  0.657841  0.011867  0.000000
  0.669011  0.046097  0.000000
  0.666529  0.009956  0.000000
  0.678221  0.011955  0.000000
  0.668012  0.021955  0.000000
  0.646629  0.014746  0.000000
  0.635803  0.025079  0.000000
  0.642108  0.009723  0.000000
  0.629672  0.039497  0.000000
  0.615952  0.026755  0.000000
  0.594132  0.011394  0.000000
  0.573247  0.028328  0.000000
  0.567954  0.014811  0.000000
  0.516459  0.012912  0.000000
  0.522390  0.036858  0.000000
  0.499781  0.040089  0.000000
  0.510510  0.041568  0.000000
  0.495067  0.052516  0.000000
  0.489941  0.035507  0.000000
  0.444578  0.047118  0.000000
  0.457944  0.039293  0.000000
  0.400936  0.044543  0.000000
  0.403393  0.041091  0.000000
  0.391536  0.035458  0.000000
  0.363666  0.056083  0.000000
  0.335390  0.063691  0.000000
  0.352255  0.062318  0.000000
  0.346000  0.055131  0.000000
  0.321117  0.068706  0.000000
  0.677797  0.054427  0.000000
  0.665766  0.130018  0.000000
  0.691051  0.070358  0.000000
  0.684526  0.033258  0.000000
  0.666245  0.119430  0.000000
  0.674182  0.061049  0.000000
  0.678319  0.070160  0.000000
  0.672582  0.074261  0.000000
  0.656018  0.033221  0.000000
  0.652817  0.046505  0.000000
  0.653675  0.030560  0.000000
  0.632153  0.011730  0.000000
  0.613495  0.063327  0.000000
  0.629231  0.071041  0.000000
  0.558792  0.036910  0.000000
  0.592339  0.057431  0.000000
  0.559079  0.027690  0.000000
  0.553252  0.014273  0.000000
  0.532045  0.010010  0.000000
  0.592574  0.042253  0.000000
  0.528084  0.028823  0.000000
  0.515152  0.053002  0.000000
  0.479903  0.025928  0.000000
  0.465972  0.066528  0.000000
  0.452619  0.053521  0.000000
  0.418447  0.053682  0.000000
  0.390547  0.049556  0.000000
  0.377481  0.039605  0.000000
  0.374500  0.047261  0.000000
  0.369324  0.061497  0.000000
  0.683014  0.111468  0.000000
  0.656299  0.134488  0.000000
  0.691216  0.038595  0.000000
  0.688180  0.064401  0.000000
  0.643785  0.185681  0.000000
  0.671795  0.021006  0.000000
  0.691117  0.124426  0.000000
  0.681257  0.135127  0.000000
  0.657317  0.121942  0.000000
  0.665742  0.145722  0.000000
  0.683897  0.079675  0.000000
  0.661879  0.109963  0.000000
  0.665517  0.056029  0.000000
  0.651278  0.140558  0.000000
  0.650470  0.064087  0.000000
  0.640663  0.035290  0.000000
  0.645212  0.081714  0.000000
  0.619985  0.057332  0.000000
  0.634784  0.059013  0.000000
  0.594173  0.031080  0.000000
  0.570995  0.030029  0.000000
  0.550000  0.021840  0.000000
  0.540185  0.049678  0.000000
  0.473976  0.058030  0.000000
  0.474539  0.042524  0.000000
  0.466276  0.057833  0.000000
  0.428808  0.042434  0.000000
  0.422688  0.053734  0.000000
  0.386149  0.059440  0.000000
  0.378853  0.057106  0.000000
  0.690986  0.106628  0.000000
  0.649311  0.221033  0.000000
  0.644370  0.183286  0.000000
  0.670926  0.179730  0.000000
  0.684242  0.216528  0.000000
  0.684074  0.087056  0.000000
  0.684535  0.011448  0.000000
  0.642205  0.179814  0.000000
  0.677478  0.165916  0.000000
  0.685781  0.101746  0.000000
  0.692351  0.172216  0.000000
  0.681059  0.034961  0.000000
  0.685038  0.022502  0.000000
  0.673379  0.095336  0.000000
  0.661953  0.045893  0.000000
  0.680044  0.119597  0.000000
  0.658721  0.075853  0.000000
  0.638629  0.051892  0.000000
  0.653774  0.074533  0.000000
  0.630642  0.023684  0.000000
  0.637716  0.041282  0.000000
  0.586904  0.050609  0.000000
  0.568095  0.059013  0.000000
  0.544604  0.045011  0.000000
  0.540617  0.033628  0.000000
  0.559462  0.043177  0.000000
  0.490565  0.025898  0.000000
  0.472945  0.041658  0.000000
  0.434951  0.034010  0.000000
  0.434482  0.056785  0.000000
  0.685673  0.155159  0.000000
  0.684355  0.049420  0.000000
  0.684405  0.250487  0.000000
  0.684294  0.355427  0.000000
  0.689620  0.086843  0.000000
  0.691555  0.016780  0.000000
  0.661557  0.255720  0.000000
  0.685656  0.273585  0.000000
  0.688612  0.052306  0.000000
  0.679799  0.158214  0.000000
  0.674814  0.233125  0.000000
  0.671735  0.145116  0.000000
  0.683270  0.203590  0.000000
  0.634435  0.227117  0.000000
  0.642985  0.217143  0.000000
  0.668006  0.185794  0.000000
  0.634989  0.154736  0.000000
  0.671837  0.037376  0.000000
  0.664678  0.097459  0.000000
  0.651971  0.101192  0.000000
  0.664856  0.068500  0.000000
  0.648267  0.050415  0.000000
  0.625754  0.055680  0.000000
  0.640079  0.074393  0.000000
  0.581877  0.051359  0.000000
  0.569175  0.048206  0.000000
  0.549583  0.033666  0.000000
  0.493440  0.045985  0.000000
  0.482404  0.054533  0.000000
  0.436477  0.049597  0.000000
  0.655953  0.329050  0.000000
  0.588222  0.369704  0.000000
  0.658044  0.216816  0.000000
  0.621467  0.285690  0.000000
  0.555312  0.434394  0.000000
  0.641634  0.300408  0.000000
  0.678358  0.273232  0.000000
  0.686622  0.289693  0.000000
  0.638887  0.362414  0.000000
  0.647396  0.262527  0.000000
  0.674766  0.171872  0.000000
  0.678170  0.228917  0.000000
  0.658859  0.228319  0.000000
  0.611369  0.184369  0.000000
  0.661657  0.230717  0.000000
  0.689170  0.195827  0.000000
  0.664236  0.178881  0.000000
  0.682866  0.183032  0.000000
  0.677568  0.211750  0.000000
  0.671973  0.134870  0.000000
  0.668422  0.151803  0.000000
  0.634451  0.123111  0.000000
  0.654884  0.057597  0.000000
  0.671924  0.088140  0.000000
  0.613783  0.066810  0.000000
  0.604343  0.052743  0.000000
  0.592107  0.030308  0.000000
  0.574818  0.040954  0.000000
  0.514513  0.049582  0.000000
  0.451890  0.053233  0.000000
  0.637271  0.276039  0.000000
  0.653447  0.309316  0.000000
  0.679888  0.241211  0.000000
  0.649116  0.364777  0.000000
  0.685742  0.188649  0.000000
  0.690585  0.142249  0.000000
  0.669061  0.308993  0.000000
  0.661877  0.343822  0.000000
  0.680004  0.387352  0.000000
  0.552372  0.300062  0.000000
  0.629726  0.227573  0.000000
  0.572724  0.337514  0.000000
  0.629520  0.298461  0.000000
  0.679874  0.266493  0.000000
  0.664727  0.284756  0.000000
  0.669040  0.247244  0.000000
  0.644582  0.231556  0.000000
  0.671158  0.160489  0.000000
  0.682324  0.240229  0.000000
  0.666757  0.265238  0.000000
  0.625851  0.163048  0.000000
  0.647209  0.145050  0.000000
  0.678340  0.104707  0.000000
  0.641673  0.134201  0.000000
  0.664765  0.082726  0.000000
  0.639276  0.063237  0.000000
  0.620655  0.033564  0.000000
  0.560342  0.053927  0.000000
  0.531595  0.047156  0.000000
  0.667895  0.310068  0.000000
  0.596587  0.353883  0.000000
  0.622133  0.494902  0.000000
  0.648918  0.456313  0.000000
  0.649560  0.462532  0.000000
  0.613855  0.289130  0.000000
  0.677288  0.317099  0.000000
  0.622513  0.356661  0.000000
  0.673225  0.291183  0.000000
  0.676888  0.322080  0.000000
  0.618401  0.196951  0.000000
  0.636636  0.241736  0.000000
  0.621645  0.226063  0.000000
  0.683173  0.131670  0.000000
  0.657574  0.203516  0.000000
  0.642840  0.156148  0.000000
  0.653916  0.165281  0.000000
  0.667897  0.111568  0.000000
  0.659741  0.092146  0.000000
  0.644080  0.085839  0.000000
  0.609794  0.037333  0.000000
  0.601853  0.050056  0.000000
  0.658236  0.462198  0.000000
  0.659945  0.451513  0.000000
  0.623930  0.314800  0.000000
  0.668747  0.398640  0.000000
  0.605124  0.351841  0.000000
  0.601266  0.318967  0.000000
  0.641667  0.343367  0.000000
  0.644242  0.307618  0.000000
  0.630839  0.295083  0.000000
  0.633933  0.263040  0.000000
  0.648961  0.196456  0.000000
  0.636933  0.171300  0.000000
  0.625493  0.190745  0.000000
  0.655030  0.156788  0.000000
  0.649776  0.096103  0.000000
  0.654239  0.122589  0.000000
  0.613061  0.050951  0.000000
 -0.010000  0.500000  0.000000
 -0.010000  0.490000  0.000000
 -0.010000  0.480000  0.000000
 -0.010000  0.470000  0.000000
 -0.010000  0.460000  0.000000
 -0.010000  0.450000  0.000000
 -0.010000  0.440000  0.000000
 -0.010000  0.430000  0.000000
 -0.010000  0.420000  0.000000
 -0.010000  0.410000  0.000000
 -0.010000  0.400000  0.000000
 -0.010000  0.390000  0.000000
 -0.010000  0.380000  0.000000
 -0.010000  0.370000  0.000000
 -0.010000  0.360000  0.000000
 -0.010000  0.350000  0.000000
 -0.010000  0.340000  0.000000
 -0.010000  0.330000  0.000000
 -0.010000  0.320000  0.000000
 -0.010000  0.310000  0.000000
 -0.010000  0.300000  0.000000
 -0.010000  0.290000  0.000000
 -0.010000  0.280000  0.000000
 -0.010000  0.270000  0.000000
 -0.010000  0.260000  0.000000
 -0.010000  0.250000  0.000000
 -0.010000  0.240000  0.000000
 -0.010000  0.230000  0.000000
 -0.010000  0.220000  0.000000
 -0.010000  0.210000  0.000000
 -0.010000  0.200000  0.000000
 -0.010000  0.190000  0.000000
 -0.010000  0.180000  0.000000
 -0.010000  0.170000  0.000000
 -0.010000  0.160000  0.000000
 -0.010000  0.150000  0.000000
 -0.010000  0.140000  0.000000
 -0.010000  0.130000  0.000000
 -0.010000  0.120000  0.000000
 -0.010000  0.110000  0.000000
 -0.010000  0.100000  0.000000
 -0.010000  0.090000  0.000000
 -0.010000  0.080000  0.000000
 -0.010000  0.070000  0.000000
 -0.010000  0.060000  0.000000
 -0.010000  0.050000  0.000000
 -0.010000  0.040000  0.000000
 -0.010000  0.030000  0.000000
 -0.010000  0.020000  0.000000
 -0.010000  0.010000  0.000000
 -0.100000 -0.010000  0.000000
 -0.090000 -0.010000  0.000000
 -0.080000 -0.010000  0.000000
 -0.070000 -0.010000  0.000000
 -0.060000 -0.010000  0.000000
 -0.050000 -0.010000  0.000000
 -0.040000 -0.010000  0.000000
 -0.030000 -0.010000  0.000000
 -0.020000 -0.010000  0.000000
 -0.010000 -0.010000  0.000000
 -0.000000 -0.010000  0.000000
  0.010000 -0.010000  0.000000
  0.020000 -0.010000  0.000000
  0.030000 -0.010000  0.000000
  0.040000 -0.010000  0.000000
  0.050000 -0.010000  0.000000
  0.060000 -0.010000  0.000000
  0.070000 -0.010000  0.000000
  0.080000 -0.010000  0.000000
  0.090000 -0.010000  0.000000
  0.100000 -0.010000  0.000000
  0.110000 -0.010000  0.000000
  0.120000 -0.010000  0.000000
  0.130000 -0.010000  0.000000
  0.140000 -0.010000  0.000000
  0.150000 -0.010000  0.000000
  0.160000 -0.010000  0.000000
  0.170000 -0.010000  0.000000
  0.180000 -0.010000  0.000000
  0.190000 -0.010000  0.000000
  0.200000 -0.010000  0.000000
  0.210000 -0.010000  0.000000