<?xml version="1.0" encoding="UTF-8"?>
<VTKFile type="UnstructuredGrid" version="1.0" byte_order="LittleEndian">
<UnstructuredGrid>
  <Piece NumberOfPoints="1554" NumberOfCells="1554">
      <PointData>
        <DataArray type="Int32" Name="Type" format="ascii">
 1 1 1 1 1 1 1 1 1 1
 1 1 1 1 1 1 1 1 1 1
 1 1 1 1 1 1 1 1 1 1
 1 1 1 1 1 1 1 1 1 1
 1 1 1 1 1 1 1 1 1 1
 1 1 1 1 1 1 1 1 1 1
 1 3 3 3 3 3 3 3 3 3
 3 3 3 3 3 3 3 3 3 3
 3 3 3 3 3 3 3 3 3 3
 3 3 3 3 3 3 3 3 3 3
 3 3 3 3 3 3 3 3 3 3
 3 3 3 3 3 3 3 3 3 3
 3 3 3 3 3 3 3 3 3 3
 1 1 1 1 1 1 1 1 1 1
 1 1 1 1 1 1 1 1 1 1
 1 1 1 1 1 1 1 1 1 1
 1 1 1 1 1 1 1 1 1 1
 1 1 1 1 1 1 1 1 1 1
 1 1 1 1 1 1 1 1 1 1
 1 2 2 2 2 2 2 2 2 2
 2 2 2 2 2 2 2 2 2 2
 2 2 2 2 2 2 2 2 2 2
 2 2 2 2 2 2 2 2 2 2
 2 2 2 2 2 2 2 2 2 2
 2 2 2 2 2 2 2 2 2 2
 2 2 2 2 2 2 2 2 2 2
 2 2 2 2 2 2 2 2 2 2
 2 2 2 2 2 2 2 2 2 2
 2 2 2 2 2 2 2 2 2 2
 2 2 2 2 2 2 2 2 2 2
 2 2 2 2 2 2 2 2 2 2
 2 2 2 2 2 2 2 2 2 2
 2 2 2 2 2 2 2 2 2 2
 2 2 2 2 2 2 2 2 2 2
 2 2 2 2 2 2 2 2 2 2
 2 2 2 2 2 2 2 2 2 2
 2 2 2 2 2 2 2 2 2 2
 2 2 2 2 2 2 2 2 2 2
 2 2 2 2 2 2 2 2 2 2
 2 2 2 2 2 2 2 2 2 2
 2 2 2 2 2 2 2 2 2 2
 2 2 2 2 2 2 2 2 2 2
 2 2 2 2 2 2 2 2 2 2
 2 2 2 2 2 2 2 2 2 2
 2 2 2 2 2 2 2 2 2 2
 2 2 2 2 2 2 2 2 2 2
 2 2 2 2 2 2 2 2 2 2
 2 2 2 2 2 2 2 2 2 2
 2 2 2 2 2 2 2 2 2 2
 2 2 2 2 2 2 2 2 2 2
 2 2 2 2 2 2 2 2 2 2
 2 2 2 2 2 2 2 2 2 2
 2 2 2 2 2 2 2 2 2 2
 2 2 2 2 2 2 2 2 2 2
 2 2 2 2 2 2 2 2 2 2
 2 2 2 2 2 2 2 2 2 2
 2 2 2 2 2 2 2 2 2 2
 2 2 2 2 2 2 2 2 2 2
 2 2 2 2 2 2 2 2 2 2
 2 2 2 2 2 2 2 2 2 2
 2 2 2 2 2 2 2 2 2 2
 2 2 2 2 2 2 2 2 2 2
 2 2 2 2 2 2 2 2 2 2
 2 2 2 2 2 2 2 2 2 2
 2 2 2 2 2 2 2 2 2 2
 2 2 2 2 2 2 2 2 2 2
 2 2 2 2 2 2 2 2 2 2
 2 2 2 2 2 2 2 2 2 2
 2 2 2 2 2 2 2 2 2 2
 2 2 2 2 2 2 2 2 2 2
 2 2 2 2 2 2 2 2 2 2
 2 2 2 2 2 2 2 2 2 2
 2 2 2 2 2 2 2 2 2 2
 2 2 2 2 2 2 2 2 2 2
 2 2 2 2 2 2 2 2 2 2
 2 2 2 2 2 2 2 2 2 2
 2 2 2 2 2 2 2 2 2 2
 2 2 2 2 2 2 2 2 2 2
 2 2 2 2 2 2 2 2 2 2
 0 0 0 0 0 0 0 0 0 0
 0 0 0 0 0 0 0 0 0 0
 0 0 0 0 0 0 0 0 0 0
 0 0 0 0 0 0 0 0 0 0
 0 0 0 0 0 0 0 0 0 0
 0 0 0 0 0 0 0 0 0 0
 0 0 0 0 0 0 0 0 0 0
 0 0 0 0 0 0 0 0 0 0
 0 0 0 0 0 0 0 0 0 0
 0 0 0 0 0 0 0 0 0 0
 0 0 0 0 0 0 0 0 0 0
 0 0 0 0 0 0 0 0 0 0
 0 0 0 0 0 0 0 0 0 0
 0 0 0 0 0 0 0 0 0 0
 0 0 0 0 0 0 0 0 0 0
 0 0 0 0 0 0 0 0 0 0
 0 0 0 0 0 0 0 0 0 0
 0 0 0 0 0 0 0 0 0 0
 0 0 0 0 0 0 0 0 0 0
 0 0 0 0 0 0 0 0 0 0
 0 0 0 0 0 0 0 0 0 0
 0 0 0 0 0 0 0 0 0 0
 0 0 0 0 0 0 0 0 0 0
 0 0 0 0 0 0 0 0 0 0
 0 0 0 0 0 0 0 0 0 0
 0 0 0 0 0 0 0 0 0 0
 0 0 0 0 0 0 0 0 0 0
 0 0 0 0 0 0 0 0 0 0
 0 0 0 0 0 0 0 0 0 0
 0 0 0 0 0 0 0 0 0 0
 0 0 0 0 0 0 0 0 0 0
 0 0 0 0 0 0 0 0 0 0
 0 0 0 0 0 0 0 0 0 0
 0 0 0 0 0 0 0 0 0 0
 0 0 0 0 0 0 0 0 0 0
 0 0 0 0 0 0 0 0 0 0
 0 0 0 0 0 0 0 0 0 0
 0 0 0 0 0 0 0 0 0 0
 0 0 0 0 0 0 0 0 0 0
 0 0 0 0 0 0 0 0 0 0
 0 0 0 0 0 0 0 0 0 0
 0 0 0 0 0 0 0 0 0 0
 0 0 0 0 0 0 0 0 0 0
 0 0 0 0 0 0 0 0 0 0
 0 0 0 0 0 0 0 0 0 0
 0 0 0 0 0 0 0 0 0 0
 0 0 0 0 0 0 0 0 0 0
 0 0 0 0 0 0 0 0 0 0
 0 0 0 0 0 0 0 0 0 0
 0 0 0 0 0 0 0 0 0 0
 0 0 0 0 0 0 0 0 0 0
 0 0 0 0 0 0 0 0 0 0
 0 0 0 0 0 0 0 0 0 0
 0 0 0 0 0 0 0 0 0 0
 0 0 0 0 0 0 0 0 0 0
 0 0 0 0 0 0 0 0 0 0
 0 0 0 0 0 0 0 0 0 0
 0 0 0 0 0 0 0 0 0 0
 0 0 0 0 0 0 0 0 0 0
 0 0 0 0 0 0 0 0 0 0
 0 0 0 0 0 0 0 0 0 0
 0 0 0 0 0 0 0 0 0 0
 0 0 0 0 0 0 0 0 0 0
 0 0 0 0 0 0 0 0 0 0
 0 0 0 0 0 0 0 0 0 0
 0 0 0 0 0 0 0 0 0 0
 0 0 0 0 0 0 0 0 0 0
 0 0 0 0 0 0 0 0 0 0
 0 0 0 0 0 0 0 0 0 0
 0 0 0 0 0 0 0 0 0 0
 0 0 0 0 0 0 0 0 0 0
 0 0 0 0 0 0 0 0 0 0
 0 0 0 0 0 0 0 0 0 0
 0 0 0 0 0 0 0 0 0 0
 0 0 0 0 0 0 0 0 0 0
 0 0 0 0 0 0 0 0 0 0
 0 0 0 0
        </DataArray>
      </PointData>
      <Points>
        <DataArray type="Float32" NumberOfComponents="3" format="ascii">
  0.000000  0.500000  0.000000
  0.000000  0.490000  0.000000
  0.000000  0.480000  0.000000
  0.000000  0.470000  0.000000
  0.000000  0.460000  0.000000
  0.000000  0.450000  0.000000
  0.000000  0.440000  0.000000
  0.000000  0.430000  0.000000
  0.000000  0.420000  0.000000
  0.000000  0.410000  0.000000
  0.000000  0.400000  0.000000
  0.000000  0.390000  0.000000
  0.000000  0.380000  0.000000
  0.000000  0.370000  0.000000
  0.000000  0.360000  0.000000
  0.000000  0.350000  0.000000
  0.000000  0.340000  0.000000
  0.000000  0.330000  0.000000
  0.000000  0.320000  0.000000
  0.000000  0.310000  0.000000
  0.000000  0.300000  0.000000
  0.000000  0.290000  0.000000
  0.000000  0.280000  0.000000
  0.000000  0.270000  0.000000
  0.000000  0.260000  0.000000
  0.000000  0.250000  0.000000
  0.000000  0.240000  0.000000
  0.000000  0.230000  0.000000
  0.000000  0.220000  0.000000
  0.000000  0.210000  0.000000
  0.000000  0.200000  0.000000
  0.000000  0.190000  0.000000
  0.000000  0.180000  0.000000
  0.000000  0.170000  0.000000
  0.000000  0.160000  0.000000
  0.000000  0.150000  0.000000
  0.000000  0.140000  0.000000
  0.000000  0.130000  0.000000
  0.000000  0.120000  0.000000
  0.000000  0.110000  0.000000
  0.000000  0.100000  0.000000
  0.000000  0.090000  0.000000
  0.000000  0.080000  0.000000
  0.000000  0.070000  0.000000
  0.000000  0.060000  0.000000
  0.000000  0.050000  0.000000
  0.000000  0.040000  0.000000
  0.000000  0.030000  0.000000
  0.000000  0.020000  0.000000
  0.000000  0.010000  0.000000
 -0.100000  0.000000  0.000000
 -0.090000  0.000000  0.000000
 -0.080000  0.000000  0.000000
 -0.070000  0.000000  0.000000
 -0.060000  0.000000  0.000000
 -0.050000  0.000000  0.000000
 -0.040000  0.000000  0.000000
 -0.030000  0.000000  0.000000
 -0.020000  0.000000  0.000000
 -0.010000  0.000000  0.000000
 -0.000000  0.000000  0.000000
  0.010000  0.000000  0.000000
  0.020000  0.000000  0.000000
  0.030000  0.000000  0.000000
  0.040000  0.000000  0.000000
  0.050000  0.000000  0.000000
  0.060000  0.000000  0.000000
  0.070000  0.000000  0.000000
  0.080000  0.000000  0.000000
  0.090000  0.000000  0.000000
  0.100000  0.000000  0.000000
  0.110000  0.000000  0.000000
  0.120000  0.000000  0.000000
  0.130000  0.000000  0.000000
  0.140000  0.000000  0.000000
  0.150000  0.000000  0.000000
  0.160000  0.000000  0.000000
  0.170000  0.000000  0.000000
  0.180000  0.000000  0.000000
  0.190000  0.000000  0.000000
  0.200000  0.000000  0.000000
  0.210000  0.000000  0.000000
  0.220000  0.000000  0.000000
  0.230000  0.000000  0.000000
  0.240000  0.000000  0.000000
  0.250000  0.000000  0.000000
  0.260000  0.000000  0.000000
  0.270000  0.000000  0.000000
  0.280000  0.000000  0.000000
  0.290000  0.000000  0.000000
  0.300000  0.000000  0.000000
  0.310000  0.000000  0.000000
  0.320000  0.000000  0.000000
  0.330000  0.000000  0.000000
  0.340000  0.000000  0.000000
  0.350000  0.000000  0.000000
  0.360000  0.000000  0.000000
  0.370000  0.000000  0.000000
  0.380000  0.000000  0.000000
  0.390000  0.000000  0.000000
  0.400000  0.000000  0.000000
  0.410000  0.000000  0.000000
  0.420000  0.000000  0.000000
  0.430000  0.000000  0.000000
  0.440000  0.000000  0.000000
  0.450000  0.000000  0.000000
  0.460000  0.000000  0.000000
  0.470000  0.000000  0.000000
  0.480000  0.000000  0.000000
  0.490000  0.000000  0.000000
  0.500000  0.000000  0.000000
  0.510000  0.000000  0.000000
  0.520000  0.000000  0.000000
  0.530000  0.000000  0.000000
  0.540000  0.000000  0.000000
  0.550000  0.000000  0.000000
  0.560000  0.000000  0.000000
  0.570000  0.000000  0.000000
  0.580000  0.000000  0.000000
  0.590000  0.000000  0.000000
  0.600000  0.000000  0.000000
  0.610000  0.000000  0.000000
  0.620000  0.000000  0.000000
  0.630000  0.000000  0.000000
  0.640000  0.000000  0.000000
  0.650000  0.000000  0.000000
  0.660000  0.000000  0.000000
  0.670000  0.000000  0.000000
  0.680000  0.000000  0.000000
  0.690000  0.000000  0.000000
  0.700000  0.000000  0.000000
  0.710000  0.000000  0.000000
  0.720000  0.000000  0.000000
  0.730000  0.000000  0.000000
  0.740000  0.000000  0.000000
  0.750000  0.000000  0.000000
  0.760000  0.000000  0.000000
  0.770000  0.000000  0.000000
  0.780000  0.000000  0.000000
  0.790000  0.000000  0.000000
  0.800000  0.000000  0.000000
  0.700000  0.010000  0.000000
  0.700000  0.020000  0.000000
  0.700000  0.030000  0.000000
  0.700000  0.040000  0.000000
  0.700000  0.050000  0.000000
  0.700000  0.060000  0.000000
  0.700000  0.070000  0.000000
  0.700000  0.080000  0.000000
  0.700000  0.090000  0.000000
  0.700000  0.100000  0.000000
  0.700000  0.110000  0.000000
  0.700000  0.120000  0.000000
  0.700000  0.130000  0.000000
  0.700000  0.140000  0.000000
  0.700000  0.150000  0.000000
  0.700000  0.160000  0.000000
  0.700000  0.170000  0.000000
  0.700000  0.180000  0.000000
  0.700000  0.190000  0.000000
  0.700000  0.200000  0.000000
  0.700000  0.210000  0.000000
  0.700000  0.220000  0.000000
  0.700000  0.230000  0.000000
  0.700000  0.240000  0.000000
  0.700000  0.250000  0.000000
  0.700000  0.260000  0.000000
  0.700000  0.270000  0.000000
  0.700000  0.280000  0.000000
  0.700000  0.290000  0.000000
  0.700000  0.300000  0.000000
  0.700000  0.310000  0.000000
  0.700000  0.320000  0.000000
  0.700000  0.330000  0.000000
  0.700000  0.340000  0.000000
  0.700000  0.350000  0.000000
  0.700000  0.360000  0.000000
  0.700000  0.370000  0.000000
  0.700000  0.380000  0.000000
  0.700000  0.390000  0.000000
  0.700000  0.400000  0.000000
  0.700000  0.410000  0.000000
  0.700000  0.420000  0.000000
  0.700000  0.430000  0.000000
  0.700000  0.440000  0.000000
  0.700000  0.450000  0.000000
  0.700000  0.460000  0.000000
  0.700000  0.470000  0.000000
  0.700000  0.480000  0.000000
  0.700000  0.490000  0.000000
  0.700000  0.500000  0.000000
  0.018774  0.010919  0.000000
  0.020750  0.019064  0.000000
  0.035172  0.015022  0.000000
  0.009287  0.010304  0.000000
  0.030804  0.022696  0.000000
  0.010841  0.021130  0.000000
  0.035133  0.029621  0.000000
  0.043312  0.019559  0.000000
  0.059022  0.027196  0.000000
  0.040711  0.035789  0.000000
  0.048000  0.038575  0.000000
  0.009498  0.029810  0.000000
  0.009379  0.042166  0.000000
  0.011807  0.049104  0.000000
  0.009489  0.059476  0.000000
  0.021938  0.055622  0.000000
  0.037043  0.061621  0.000000
  0.013387  0.065563  0.000000
  0.026477  0.081132  0.000000
  0.008951  0.076220  0.000000
  0.016151  0.077413  0.000000
  0.009800  0.088278  0.000000
  0.009728  0.097844  0.000000
  0.015700  0.107907  0.000000
  0.009256  0.110413  0.000000
  0.022013  0.115877  0.000000
  0.009514  0.123179  0.000000
  0.020344  0.127027  0.000000
  0.014622  0.127200  0.000000
  0.028612  0.125165  0.000000
  0.045103  0.008913  0.000000
  0.029023  0.008409  0.000000
  0.054230  0.010494  0.000000
  0.051334  0.020752  0.000000
  0.067612  0.008722  0.000000
  0.070443  0.021266  0.000000
  0.087489  0.016574  0.000000
  0.063710  0.014681  0.000000
  0.058725  0.042661  0.000000
  0.052494  0.030513  0.000000
  0.042308  0.049162  0.000000
  0.022351  0.031007  0.000000
  0.059550  0.046616  0.000000
  0.030298  0.039805  0.000000
  0.054108  0.060873  0.000000
  0.022007  0.048592  0.000000
  0.018251  0.034462  0.000000
  0.034594  0.058929  0.000000
  0.047710  0.063278  0.000000
  0.023181  0.066329  0.000000
  0.048956  0.077998  0.000000
  0.036460  0.076719  0.000000
  0.021622  0.087965  0.000000
  0.036732  0.089377  0.000000
  0.020483  0.094743  0.000000
  0.035160  0.103418  0.000000
  0.023315  0.102232  0.000000
  0.033501  0.107454  0.000000
  0.031511  0.115911  0.000000
  0.040678  0.122453  0.000000
  0.102288  0.010450  0.000000
  0.081003  0.009221  0.000000
  0.091899  0.009984  0.000000
  0.077586  0.019599  0.000000
  0.100414  0.023488  0.000000
  0.120201  0.013916  0.000000
  0.133560  0.022524  0.000000
  0.103723  0.038087  0.000000
  0.086630  0.046797  0.000000
  0.067775  0.031291  0.000000
  0.086898  0.035169  0.000000
  0.091048  0.026061  0.000000
  0.067681  0.052232  0.000000
  0.071633  0.068849  0.000000
  0.083096  0.061182  0.000000
  0.031369  0.046440  0.000000
  0.061394  0.063532  0.000000
  0.048150  0.051167  0.000000
  0.044118  0.074849  0.000000
  0.028176  0.071614  0.000000
  0.059599  0.073327  0.000000
  0.058755  0.083774  0.000000
  0.049480  0.089191  0.000000
  0.038786  0.090745  0.000000
  0.056074  0.098269  0.000000
  0.045691  0.100655  0.000000
  0.050177  0.107369  0.000000
  0.055018  0.113516  0.000000
  0.050035  0.119176  0.000000
  0.043066  0.126629  0.000000
  0.138018  0.010267  0.000000
  0.110558  0.009678  0.000000
  0.137992  0.016417  0.000000
  0.107094  0.019985  0.000000
  0.131387  0.038014  0.000000
  0.126342  0.008907  0.000000
  0.132086  0.032953  0.000000
  0.123468  0.021768  0.000000
  0.114876  0.042383  0.000000
  0.081455  0.030165  0.000000
  0.121578  0.042639  0.000000
  0.076409  0.042255  0.000000
  0.106696  0.047013  0.000000
  0.071613  0.037126  0.000000
  0.069287  0.057251  0.000000
  0.099834  0.032809  0.000000
  0.081503  0.052346  0.000000
  0.093248  0.057923  0.000000
  0.080731  0.067280  0.000000
  0.076532  0.078932  0.000000
  0.095275  0.076842  0.000000
  0.065552  0.079051  0.000000
  0.061539  0.093536  0.000000
  0.081062  0.083221  0.000000
  0.072321  0.093773  0.000000
  0.065972  0.103933  0.000000
  0.074317  0.108240  0.000000
  0.068117  0.111834  0.000000
  0.064611  0.124145  0.000000
  0.071181  0.121679  0.000000
  0.167139  0.009158  0.000000
  0.151584  0.008399  0.000000
  0.166091  0.015033  0.000000
  0.152251  0.014802  0.000000
  0.185803  0.012762  0.000000
  0.149725  0.023209  0.000000
  0.141508  0.031420  0.000000
  0.156674  0.024804  0.000000
  0.114611  0.026370  0.000000
  0.155807  0.035879  0.000000
  0.117585  0.031240  0.000000
  0.147977  0.036327  0.000000
  0.136419  0.047818  0.000000
  0.124670  0.053425  0.000000
  0.134045  0.066747  0.000000
  0.095071  0.045413  0.000000
  0.118998  0.054632  0.000000
  0.101858  0.053494  0.000000
  0.112677  0.077133  0.000000
  0.099931  0.063568  0.000000
  0.088161  0.074468  0.000000
  0.099930  0.072847  0.000000
  0.094384  0.089207  0.000000
  0.076049  0.091235  0.000000
  0.094101  0.092389  0.000000
  0.085038  0.102136  0.000000
  0.086491  0.099969  0.000000
  0.088428  0.114019  0.000000
  0.084533  0.114996  0.000000
  0.080898  0.124807  0.000000
  0.195621  0.008974  0.000000
  0.179721  0.009650  0.000000
  0.213079  0.021648  0.000000
  0.190419  0.021628  0.000000
  0.234722  0.012877  0.000000
  0.197862  0.029647  0.000000
  0.215044  0.012226  0.000000
  0.172758  0.020496  0.000000
  0.182895  0.024834  0.000000
  0.204254  0.031587  0.000000
  0.179016  0.033733  0.000000
  0.187614  0.035021  0.000000
  0.169115  0.027794  0.000000
  0.148234  0.048173  0.000000
  0.137016  0.051939  0.000000
  0.142955  0.059384  0.000000
  0.115830  0.062721  0.000000
  0.154374  0.060076  0.000000
  0.109451  0.064778  0.000000
  0.129995  0.066205  0.000000
  0.120898  0.071686  0.000000
  0.124166  0.080421  0.000000
  0.106257  0.084285  0.000000
  0.115820  0.085050  0.000000
  0.113078  0.098134  0.000000
  0.104577  0.094181  0.000000
  0.105451  0.104728  0.000000
  0.103946  0.108642  0.000000
  0.097475  0.115336  0.000000
  0.101496  0.120450  0.000000
  0.249328  0.012685  0.000000
  0.205553  0.013035  0.000000
  0.223070  0.010962  0.000000
  0.200738  0.018150  0.000000
  0.274368  0.025575  0.000000
  0.238531  0.011422  0.000000
  0.252786  0.017026  0.000000
  0.225831  0.019519  0.000000
  0.220192  0.026693  0.000000
  0.221861  0.034470  0.000000
  0.207850  0.035218  0.000000
  0.215420  0.045279  0.000000
  0.189778  0.042020  0.000000
  0.164593  0.034184  0.000000
  0.170453  0.043130  0.000000
  0.153925  0.047442  0.000000
  0.160899  0.056052  0.000000
  0.172001  0.057815  0.000000
  0.151627  0.066930  0.000000
  0.141594  0.072576  0.000000
  0.157105  0.075186  0.000000
  0.138865  0.079811  0.000000
  0.131704  0.084715  0.000000
  0.137205  0.091938  0.000000
  0.123211  0.094055  0.000000
  0.132144  0.098051  0.000000
  0.124660  0.106112  0.000000
  0.120520  0.104373  0.000000
  0.118300  0.117496  0.000000
  0.112185  0.120429  0.000000
  0.267307  0.015929  0.000000
  0.259384  0.009841  0.000000
  0.312006  0.024526  0.000000
  0.273445  0.010873  0.000000
  0.320640  0.025817  0.000000
  0.289252  0.011242  0.000000
  0.292260  0.028972  0.000000
  0.267325  0.025910  0.000000
  0.281395  0.013178  0.000000
  0.257671  0.026937  0.000000
  0.242543  0.024632  0.000000
  0.235438  0.027717  0.000000
  0.235334  0.033356  0.000000
  0.199066  0.046209  0.000000
  0.208521  0.055944  0.000000
  0.180907  0.048185  0.000000
  0.170424  0.045960  0.000000
  0.193694  0.051274  0.000000
  0.178809  0.059730  0.000000
  0.188528  0.057357  0.000000
  0.167244  0.071994  0.000000
  0.166975  0.065743  0.000000
  0.167678  0.081162  0.000000
  0.148841  0.081702  0.000000
  0.157018  0.084816  0.000000
  0.150917  0.092559  0.000000
  0.148353  0.096915  0.000000
  0.141348  0.105113  0.000000
  0.139324  0.117566  0.000000
  0.138552  0.110999  0.000000
  0.321689  0.013263  0.000000
  0.307653  0.012348  0.000000
  0.332766  0.012445  0.000000
  0.312046  0.011308  0.000000
  0.345159  0.014900  0.000000
  0.326428  0.017902  0.000000
  0.335809  0.029112  0.000000
  0.297839  0.019908  0.000000
  0.295826  0.014243  0.000000
  0.296160  0.031942  0.000000
  0.265094  0.037916  0.000000
  0.266999  0.041356  0.000000
  0.252505  0.050128  0.000000
  0.249506  0.031329  0.000000
  0.242860  0.043183  0.000000
  0.209154  0.047633  0.000000
  0.225309  0.039684  0.000000
  0.223912  0.052335  0.000000
  0.222543  0.060063  0.000000
  0.207093  0.063116  0.000000
  0.197943  0.066080  0.000000
  0.186697  0.066404  0.000000
  0.186131  0.074453  0.000000
  0.180505  0.076415  0.000000
  0.182485  0.084208  0.000000
  0.169668  0.087860  0.000000
  0.167962  0.095232  0.000000
  0.160264  0.102217  0.000000
  0.157356  0.107340  0.000000
  0.151448  0.110713  0.000000
  0.393301  0.010697  0.000000
  0.342982  0.010271  0.000000
  0.401394  0.013163  0.000000
  0.366206  0.015563  0.000000
  0.410363  0.027742  0.000000
  0.373065  0.012175  0.000000
  0.403488  0.023789  0.000000
  0.350682  0.031669  0.000000
  0.325643  0.035837  0.000000
  0.307689  0.030216  0.000000
  0.310463  0.036918  0.000000
  0.300562  0.044878  0.000000
  0.254808  0.036576  0.000000
  0.281455  0.023718  0.000000
  0.284558  0.035675  0.000000
  0.278080  0.040860  0.000000
  0.250352  0.056965  0.000000
  0.241852  0.045754  0.000000
  0.241936  0.062487  0.000000
  0.231337  0.049628  0.000000
  0.235069  0.058364  0.000000
  0.215076  0.066701  0.000000
  0.225098  0.070243  0.000000
  0.201755  0.074501  0.000000
  0.205228  0.084501  0.000000
  0.195120  0.084782  0.000000
  0.190751  0.091697  0.000000
  0.184510  0.094982  0.000000
  0.174013  0.099330  0.000000
  0.174497  0.107298  0.000000
  0.431821  0.012188  0.000000
  0.396507  0.023463  0.000000
  0.464833  0.013116  0.000000
  0.418202  0.012678  0.000000
  0.454831  0.011994  0.000000
  0.409369  0.010737  0.000000
  0.431596  0.012058  0.000000
  0.418015  0.017754  0.000000
  0.384668  0.030661  0.000000
  0.364097  0.026784  0.000000
  0.382646  0.013670  0.000000
  0.337957  0.022685  0.000000
  0.338514  0.034902  0.000000
  0.341368  0.050776  0.000000
  0.331490  0.044466  0.000000
  0.299912  0.047610  0.000000
  0.286215  0.043553  0.000000
  0.278450  0.051464  0.000000
  0.278069  0.057944  0.000000
  0.265559  0.053838  0.000000
  0.261759  0.066518  0.000000
  0.250189  0.067832  0.000000
  0.233978  0.069076  0.000000
  0.235787  0.081663  0.000000
  0.208713  0.077720  0.000000
  0.222182  0.077142  0.000000
  0.210927  0.093230  0.000000
  0.196786  0.101314  0.000000
  0.198668  0.108232  0.000000
  0.187002  0.104511  0.000000
  0.522565  0.009552  0.000000
  0.485294  0.013950  0.000000
  0.524316  0.016235  0.000000
  0.500806  0.013705  0.000000
  0.510828  0.013984  0.000000
  0.480182  0.012523  0.000000
  0.470661  0.011055  0.000000
  0.442129  0.018987  0.000000
  0.446830  0.011750  0.000000
  0.428414  0.028196  0.000000
  0.419704  0.035944  0.000000
  0.384110  0.015973  0.000000
  0.376089  0.028213  0.000000
  0.365171  0.036596  0.000000
  0.354382  0.027737  0.000000
  0.345172  0.042921  0.000000
  0.332111  0.052335  0.000000
  0.320490  0.039081  0.000000
  0.325521  0.056508  0.000000
  0.310428  0.049644  0.000000
  0.290858  0.054426  0.000000
  0.299391  0.061099  0.000000
  0.262103  0.053379  0.000000
  0.271450  0.067068  0.000000
  0.254215  0.072297  0.000000
  0.240312  0.077402  0.000000
  0.229319  0.091963  0.000000
  0.228074  0.084768  0.000000
  0.214437  0.091215  0.000000
  0.205896  0.098987  0.000000
  0.622991  0.012977  0.000000
  0.580549  0.020425  0.000000
  0.581103  0.011320  0.000000
  0.558329  0.012727  0.000000
  0.571255  0.011683  0.000000
  0.538307  0.010900  0.000000
  0.508918  0.025514  0.000000
  0.516023  0.021167  0.000000
  0.498551  0.009600  0.000000
  0.472740  0.024010  0.000000
  0.455241  0.019831  0.000000
  0.439008  0.027013  0.000000
  0.423361  0.027056  0.000000
  0.435093  0.043824  0.000000
  0.388733  0.038097  0.000000
  0.392071  0.044579  0.000000
  0.376299  0.032085  0.000000
  0.359459  0.010854  0.000000
  0.356012  0.016944  0.000000
  0.379507  0.046597  0.000000
  0.354478  0.043697  0.000000
  0.336197  0.065369  0.000000
  0.316470  0.049259  0.000000
  0.288073  0.062234  0.000000
  0.281760  0.069034  0.000000
  0.268740  0.074156  0.000000
  0.255260  0.082401  0.000000
  0.249492  0.085041  0.000000
  0.241408  0.100627  0.000000
  0.227371  0.098299  0.000000
  0.652390  0.016542  0.000000
  0.621698  0.017641  0.000000
  0.632304  0.011315  0.000000
  0.610897  0.012093  0.000000
  0.629106  0.042264  0.000000
  0.590808  0.011406  0.000000
  0.561940  0.025351  0.000000
  0.571546  0.031895  0.000000
  0.527670  0.023636  0.000000
  0.562384  0.029425  0.000000
  0.541888  0.024749  0.000000
  0.501663  0.026200  0.000000
  0.481696  0.025021  0.000000
  0.496149  0.042301  0.000000
  0.464625  0.025836  0.000000
  0.447663  0.029718  0.000000
  0.453203  0.049878  0.000000
  0.414330  0.042945  0.000000
  0.417723  0.046049  0.000000
  0.400057  0.035032  0.000000
  0.377409  0.049986  0.000000
  0.359669  0.040568  0.000000
  0.359582  0.056016  0.000000
  0.326209  0.068860  0.000000
  0.317812  0.064073  0.000000
  0.302331  0.071953  0.000000
  0.283346  0.076596  0.000000
  0.274741  0.084635  0.000000
  0.258109  0.092936  0.000000
  0.250393  0.092661  0.000000
  0.671969  0.012457  0.000000
  0.675216  0.034998  0.000000
  0.673130  0.028634  0.000000
  0.664853  0.020741  0.000000
  0.650513  0.036854  0.000000
  0.640751  0.010884  0.000000
  0.604775  0.009977  0.000000
  0.618071  0.039151  0.000000
  0.579450  0.030824  0.000000
  0.591852  0.017049  0.000000
  0.586333  0.033826  0.000000
  0.549116  0.010840  0.000000
  0.565560  0.012903  0.000000
  0.552488  0.022420  0.000000
  0.491841  0.022155  0.000000
  0.513209  0.038738  0.000000
  0.496717  0.032123  0.000000
  0.464879  0.032304  0.000000
  0.464654  0.045302  0.000000
  0.444804  0.035225  0.000000
  0.431299  0.041304  0.000000
  0.402222  0.040578  0.000000
  0.388902  0.061104  0.000000
  0.372472  0.053605  0.000000
  0.345839  0.058407  0.000000
  0.344525  0.066113  0.000000
  0.310556  0.061776  0.000000
  0.297652  0.069681  0.000000
  0.286117  0.088190  0.000000
  0.269761  0.083153  0.000000
  0.681288  0.024735  0.000000
  0.680642  0.010892  0.000000
  0.684792  0.047158  0.000000
  0.682217  0.091246  0.000000
  0.665528  0.012983  0.000000
  0.654268  0.009876  0.000000
  0.667174  0.040363  0.000000
  0.655471  0.048218  0.000000
  0.635623  0.018991  0.000000
  0.646648  0.022410  0.000000
  0.643055  0.034858  0.000000
  0.622429  0.030490  0.000000
  0.605922  0.028944  0.000000
  0.629041  0.031330  0.000000
  0.591052  0.038162  0.000000
  0.561208  0.042572  0.000000
  0.546193  0.041582  0.000000
  0.541870  0.017563  0.000000
  0.522333  0.032929  0.000000
  0.497454  0.049979  0.000000
  0.486251  0.032554  0.000000
  0.457872  0.036989  0.000000
  0.430772  0.052595  0.000000
  0.427883  0.065017  0.000000
  0.403805  0.050644  0.000000
  0.375843  0.061816  0.000000
  0.356919  0.056889  0.000000
  0.334287  0.080529  0.000000
  0.319989  0.076003  0.000000
  0.289438  0.081948  0.000000
  0.683807  0.076713  0.000000
  0.675937  0.126896  0.000000
  0.688820  0.033324  0.000000
  0.689917  0.051821  0.000000
  0.644568  0.156228  0.000000
  0.672824  0.047581  0.000000
  0.682665  0.069258  0.000000
  0.673798  0.081735  0.000000
  0.680897  0.122247  0.000000
  0.676428  0.064083  0.000000
  0.657396  0.027670  0.000000
  0.660406  0.033793  0.000000
  0.652639  0.052008  0.000000
  0.641032  0.048974  0.000000
  0.639325  0.029454  0.000000
  0.638516  0.045819  0.000000
  0.601331  0.035617  0.000000
  0.592743  0.025065  0.000000
  0.570553  0.040185  0.000000
  0.547602  0.033560  0.000000
  0.516786  0.045853  0.000000
  0.508696  0.042265  0.000000
  0.480788  0.038240  0.000000
  0.476490  0.059430  0.000000
  0.429441  0.056722  0.000000
  0.413736  0.057977  0.000000
  0.396921  0.058502  0.000000
  0.370677  0.067202  0.000000
  0.340249  0.072679  0.000000
  0.316523  0.076253  0.000000
  0.686089  0.058822  0.000000
  0.649591  0.211627  0.000000
  0.685319  0.110207  0.000000
  0.686804  0.037588  0.000000
  0.688534  0.095562  0.000000
  0.689269  0.019980  0.000000
  0.688164  0.013817  0.000000
  0.687177  0.090842  0.000000
  0.666833  0.103023  0.000000
  0.676756  0.134372  0.000000
  0.676757  0.109432  0.000000
  0.675756  0.057682  0.000000
  0.671017  0.087188  0.000000
  0.672180  0.104654  0.000000
  0.663729  0.050144  0.000000
  0.656948  0.065640  0.000000
  0.648617  0.062521  0.000000
  0.634951  0.061518  0.000000
  0.613838  0.026464  0.000000
  0.605773  0.042464  0.000000
  0.584817  0.050365  0.000000
  0.576017  0.057895  0.000000
  0.531133  0.047915  0.000000
  0.530984  0.033563  0.000000
  0.488676  0.050608  0.000000
  0.473695  0.040696  0.000000
  0.443324  0.058064  0.000000
  0.412224  0.057918  0.000000
  0.367293  0.066780  0.000000
  0.358497  0.068406  0.000000
  0.642099  0.201816  0.000000
  0.683378  0.166936  0.000000
  0.690999  0.075201  0.000000
  0.620688  0.293904  0.000000
  0.677092  0.263491  0.000000
  0.633581  0.227221  0.000000
  0.672671  0.258868  0.000000
  0.679290  0.138621  0.000000
  0.678246  0.172957  0.000000
  0.674478  0.201692  0.000000
  0.667620  0.148024  0.000000
  0.686284  0.130532  0.000000
  0.689976  0.150276  0.000000
  0.656427  0.140867  0.000000
  0.664431  0.062160  0.000000
  0.688798  0.114330  0.000000
  0.665321  0.076026  0.000000
  0.661828  0.118680  0.000000
  0.650405  0.080023  0.000000
  0.645684  0.073137  0.000000
  0.617138  0.057122  0.000000
  0.605969  0.020035  0.000000
  0.621914  0.046596  0.000000
  0.542413  0.051342  0.000000
  0.541754  0.046011  0.000000
  0.524836  0.043621  0.000000
  0.481953  0.048662  0.000000
  0.446756  0.044228  0.000000
  0.403079  0.068459  0.000000
  0.396259  0.064723  0.000000
  0.579410  0.336261  0.000000
  0.658086  0.187763  0.000000
  0.562922  0.307712  0.000000
  0.550618  0.347529  0.000000
  0.619460  0.322302  0.000000
  0.654412  0.226895  0.000000
  0.678207  0.240465  0.000000
  0.681370  0.291677  0.000000
  0.675896  0.224508  0.000000
  0.664855  0.307269  0.000000
  0.656597  0.205763  0.000000
  0.665294  0.200031  0.000000
  0.682817  0.203872  0.000000
  0.683329  0.178386  0.000000
  0.661945  0.150674  0.000000
  0.683888  0.158860  0.000000
  0.659758  0.104026  0.000000
  0.655564  0.091575  0.000000
  0.664649  0.089241  0.000000
  0.657602  0.075958  0.000000
  0.639480  0.064699  0.000000
  0.627753  0.054588  0.000000
  0.608401  0.049650  0.000000
  0.581313  0.048184  0.000000
  0.558752  0.047617  0.000000
  0.509392  0.055427  0.000000
  0.465761  0.056674  0.000000
  0.463503  0.053499  0.000000
  0.421558  0.066927  0.000000
 -0.010000  0.500000  0.000000
 -0.010000  0.490000  0.000000
 -0.010000  0.480000  0.000000
 -0.010000  0.470000  0.000000
 -0.010000  0.460000  0.000000
 -0.010000  0.450000  0.000000
 -0.010000  0.440000  0.000000
 -0.010000  0.430000  0.000000
 -0.010000  0.420000  0.000000
 -0.010000  0.410000  0.000000
 -0.010000  0.400000  0.000000
 -0.010000  0.390000  0.000000
 -0.010000  0.380000  0.000000
 -0.010000  0.370000  0.000000
 -0.010000  0.360000  0.000000
 -0.010000  0.350000  0.000000
 -0.010000  0.340000  0.000000
 -0.010000  0.330000  0.000000
 -0.010000  0.320000  0.000000
 -0.010000  0.310000  0.000000
 -0.010000  0.300000  0.000000
 -0.010000  0.290000  0.000000
 -0.010000  0.280000  0.000000
 -0.010000  0.270000  0.000000
 -0.010000  0.260000  0.000000
 -0.010000  0.250000  0.000000
 -0.010000  0.240000  0.000000
 -0.010000  0.230000  0.000000
 -0.010000  0.220000  0.000000
 -0.010000  0.210000  0.000000
 -0.010000  0.200000  0.000000
 -0.010000  0.190000  0.000000
 -0.010000  0.180000  0.000000
 -0.010000  0.170000  0.000000
 -0.010000  0.160000  0.000000
 -0.010000  0.150000  0.000000
 -0.010000  0.140000  0.000000
 -0.010000  0.130000  0.000000
 -0.010000  0.120000  0.000000
 -0.010000  0.110000  0.000000
 -0.010000  0.100000  0.000000
 -0.010000  0.090000  0.000000
 -0.010000  0.080000  0.000000
 -0.010000  0.070000  0.000000
 -0.010000  0.060000  0.000000
 -0.010000  0.050000  0.000000
 -0.010000  0.040000  0.000000
 -0.010000  0.030000  0.000000
 -0.010000  0.020000  0.000000
 -0.010000  0.010000  0.000000
 -0.100000 -0.010000  0.000000
 -0.090000 -0.010000  0.000000
 -0.080000 -0.010000  0.000000
 -0.070000 -0.010000  0.000000
 -0.060000 -0.010000  0.000000
 -0.050000 -0.010000  0.000000
 -0.040000 -0.010000  0.000000
 -0.030000 -0.010000  0.000000
 -0.020000 -0.010000  0.000000