<?xml version="1.0" encoding="UTF-8"?>
<VTKFile type="UnstructuredGrid" version="1.0" byte_order="LittleEndian">
<UnstructuredGrid>
  <Piece NumberOfPoints="1542" NumberOfCells="1542">
      <PointData>
        <DataArray type="Int32" Name="Type" format="ascii">
 1 1 1 1 1 1 1 1 1 1
 1 1 1 1 1 1 1 1 1 1
 1 1 1 1 1 1 1 1 1 1
 1 1 1 1 1 1 1 1 1 1
 1 1 1 1 1 1 1 1 1 1
 1 1 1 1 1 1 1 1 1 1
 1 3 3 3 3 3 3 3 3 3
 3 3 3 3 3 3 3 3 3 3
 3 3 3 3 3 3 3 3 3 3
 3 3 3 3 3 3 3 3 3 3
 3 3 3 3 3 3 3 3 3 3
 3 3 3 3 3 3 3 3 3 3
 3 3 3 3 3 3 3 3 3 3
 1 1 1 1 1 1 1 1 1 1
 1 1 1 1 1 1 1 1 1 1
 1 1 1 1 1 1 1 1 1 1
 1 1 1 1 1 1 1 1 1 1
 1 1 1 1 1 1 1 1 1 1
 1 1 1 1 1 1 1 1 1 1
 1 2 2 2 2 2 2 2 2 2
 2 2 2 2 2 2 2 2 2 2
 2 2 2 2 2 2 2 2 2 2
 2 2 2 2 2 2 2 2 2 2
 2 2 2 2 2 2 2 2 2 2
 2 2 2 2 2 2 2 2 2 2
 2 2 2 2 2 2 2 2 2 2
 2 2 2 2 2 2 2 2 2 2
 2 2 2 2 2 2 2 2 2 2
 2 2 2 2 2 2 2 2 2 2
 2 2 2 2 2 2 2 2 2 2
 2 2 2 2 2 2 2 2 2 2
 2 2 2 2 2 2 2 2 2 2
 2 2 2 2 2 2 2 2 2 2
 2 2 2 2 2 2 2 2 2 2
 2 2 2 2 2 2 2 2 2 2
 2 2 2 2 2 2 2 2 2 2
 2 2 2 2 2 2 2 2 2 2
 2 2 2 2 2 2 2 2 2 2
 2 2 2 2 2 2 2 2 2 2
 2 2 2 2 2 2 2 2 2 2
 2 2 2 2 2 2 2 2 2 2
 2 2 2 2 2 2 2 2 2 2
 2 2 2 2 2 2 2 2 2 2
 2 2 2 2 2 2 2 2 2 2
 2 2 2 2 2 2 2 2 2 2
 2 2 2 2 2 2 2 2 2 2
 2 2 2 2 2 2 2 2 2 2
 2 2 2 2 2 2 2 2 2 2
 2 2 2 2 2 2 2 2 2 2
 2 2 2 2 2 2 2 2 2 2
 2 2 2 2 2 2 2 2 2 2
 2 2 2 2 2 2 2 2 2 2
 2 2 2 2 2 2 2 2 2 2
 2 2 2 2 2 2 2 2 2 2
 2 2 2 2 2 2 2 2 2 2
 2 2 2 2 2 2 2 2 2 2
 2 2 2 2 2 2 2 2 2 2
 2 2 2 2 2 2 2 2 2 2
 2 2 2 2 2 2 2 2 2 2
 2 2 2 2 2 2 2 2 2 2
 2 2 2 2 2 2 2 2 2 2
 2 2 2 2 2 2 2 2 2 2
 2 2 2 2 2 2 2 2 2 2
 2 2 2 2 2 2 2 2 2 2
 2 2 2 2 2 2 2 2 2 2
 2 2 2 2 2 2 2 2 2 2
 2 2 2 2 2 2 2 2 2 2
 2 2 2 2 2 2 2 2 2 2
 2 2 2 2 2 2 2 2 2 2
 2 2 2 2 2 2 2 2 2 2
 2 2 2 2 2 2 2 2 2 2
 2 2 2 2 2 2 2 2 2 2
 2 2 2 2 2 2 2 2 2 2
 2 2 2 2 2 2 2 2 2 2
 2 2 2 2 2 2 2 2 2 2
 2 2 2 2 2 2 2 2 2 2
 2 2 2 2 2 2 2 2 2 2
 2 2 2 2 2 2 2 2 0 0
 0 0 0 0 0 0 0 0 0 0
 0 0 0 0 0 0 0 0 0 0
 0 0 0 0 0 0 0 0 0 0
 0 0 0 0 0 0 0 0 0 0
 0 0 0 0 0 0 0 0 0 0
 0 0 0 0 0 0 0 0 0 0
 0 0 0 0 0 0 0 0 0 0
 0 0 0 0 0 0 0 0 0 0
 0 0 0 0 0 0 0 0 0 0
 0 0 0 0 0 0 0 0 0 0
 0 0 0 0 0 0 0 0 0 0
 0 0 0 0 0 0 0 0 0 0
 0 0 0 0 0 0 0 0 0 0
 0 0 0 0 0 0 0 0 0 0
 0 0 0 0 0 0 0 0 0 0
 0 0 0 0 0 0 0 0 0 0
 0 0 0 0 0 0 0 0 0 0
 0 0 0 0 0 0 0 0 0 0
 0 0 0 0 0 0 0 0 0 0
 0 0 0 0 0 0 0 0 0 0
 0 0 0 0 0 0 0 0 0 0
 0 0 0 0 0 0 0 0 0 0
 0 0 0 0 0 0 0 0 0 0
 0 0 0 0 0 0 0 0 0 0
 0 0 0 0 0 0 0 0 0 0
 0 0 0 0 0 0 0 0 0 0
 0 0 0 0 0 0 0 0 0 0
 0 0 0 0 0 0 0 0 0 0
 0 0 0 0 0 0 0 0 0 0
 0 0 0 0 0 0 0 0 0 0
 0 0 0 0 0 0 0 0 0 0
 0 0 0 0 0 0 0 0 0 0
 0 0 0 0 0 0 0 0 0 0
 0 0 0 0 0 0 0 0 0 0
 0 0 0 0 0 0 0 0 0 0
 0 0 0 0 0 0 0 0 0 0
 0 0 0 0 0 0 0 0 0 0
 0 0 0 0 0 0 0 0 0 0
 0 0 0 0 0 0 0 0 0 0
 0 0 0 0 0 0 0 0 0 0
 0 0 0 0 0 0 0 0 0 0
 0 0 0 0 0 0 0 0 0 0
 0 0 0 0 0 0 0 0 0 0
 0 0 0 0 0 0 0 0 0 0
 0 0 0 0 0 0 0 0 0 0
 0 0 0 0 0 0 0 0 0 0
 0 0 0 0 0 0 0 0 0 0
 0 0 0 0 0 0 0 0 0 0
 0 0 0 0 0 0 0 0 0 0
 0 0 0 0 0 0 0 0 0 0
 0 0 0 0 0 0 0 0 0 0
 0 0 0 0 0 0 0 0 0 0
 0 0 0 0 0 0 0 0 0 0
 0 0 0 0 0 0 0 0 0 0
 0 0 0 0 0 0 0 0 0 0
 0 0 0 0 0 0 0 0 0 0
 0 0 0 0 0 0 0 0 0 0
 0 0 0 0 0 0 0 0 0 0
 0 0 0 0 0 0 0 0 0 0
 0 0 0 0 0 0 0 0 0 0
 0 0 0 0 0 0 0 0 0 0
 0 0 0 0 0 0 0 0 0 0
 0 0 0 0 0 0 0 0 0 0
 0 0 0 0 0 0 0 0 0 0
 0 0 0 0 0 0 0 0 0 0
 0 0 0 0 0 0 0 0 0 0
 0 0 0 0 0 0 0 0 0 0
 0 0 0 0 0 0 0 0 0 0
 0 0 0 0 0 0 0 0 0 0
 0 0 0 0 0 0 0 0 0 0
 0 0 0 0 0 0 0 0 0 0
 0 0 0 0 0 0 0 0 0 0
 0 0 0 0 0 0 0 0 0 0
 0 0 0 0 0 0 0 0 0 0
 0 0 0 0 0 0 0 0 0 0
 0 0 0 0 0 0 0 0 0 0
 0 0
        </DataArray>
      </PointData>
      <Points>
        <DataArray type="Float32" NumberOfComponents="3" format="ascii">
  0.000000  0.500000  0.000000
  0.000000  0.490000  0.000000
  0.000000  0.480000  0.000000
  0.000000  0.470000  0.000000
  0.000000  0.460000  0.000000
  0.000000  0.450000  0.000000
  0.000000  0.440000  0.000000
  0.000000  0.430000  0.000000
  0.000000  0.420000  0.000000
  0.000000  0.410000  0.000000
  0.000000  0.400000  0.000000
  0.000000  0.390000  0.000000
  0.000000  0.380000  0.000000
  0.000000  0.370000  0.000000
  0.000000  0.360000  0.000000
  0.000000  0.350000  0.000000
  0.000000  0.340000  0.000000
  0.000000  0.330000  0.000000
  0.000000  0.320000  0.000000
  0.000000  0.310000  0.000000
  0.000000  0.300000  0.000000
  0.000000  0.290000  0.000000
  0.000000  0.280000  0.000000
  0.000000  0.270000  0.000000
  0.000000  0.260000  0.000000
  0.000000  0.250000  0.000000
  0.000000  0.240000  0.000000
  0.000000  0.230000  0.000000
  0.000000  0.220000  0.000000
  0.000000  0.210000  0.000000
  0.000000  0.200000  0.000000
  0.000000  0.190000  0.000000
  0.000000  0.180000  0.000000
  0.000000  0.170000  0.000000
  0.000000  0.160000  0.000000
  0.000000  0.150000  0.000000
  0.000000  0.140000  0.000000
  0.000000  0.130000  0.000000
  0.000000  0.120000  0.000000
  0.000000  0.110000  0.000000
  0.000000  0.100000  0.000000
  0.000000  0.090000  0.000000
  0.000000  0.080000  0.000000
  0.000000  0.070000  0.000000
  0.000000  0.060000  0.000000
  0.000000  0.050000  0.000000
  0.000000  0.040000  0.000000
  0.000000  0.030000  0.000000
  0.000000  0.020000  0.000000
  0.000000  0.010000  0.000000
 -0.100000  0.000000  0.000000
 -0.090000  0.000000  0.000000
 -0.080000  0.000000  0.000000
 -0.070000  0.000000  0.000000
 -0.060000  0.000000  0.000000
 -0.050000  0.000000  0.000000
 -0.040000  0.000000  0.000000
 -0.030000  0.000000  0.000000
 -0.020000  0.000000  0.000000
 -0.010000  0.000000  0.000000
 -0.000000  0.000000  0.000000
  0.010000  0.000000  0.000000
  0.020000  0.000000  0.000000
  0.030000  0.000000  0.000000
  0.040000  0.000000  0.000000
  0.050000  0.000000  0.000000
  0.060000  0.000000  0.000000
  0.070000  0.000000  0.000000
  0.080000  0.000000  0.000000
  0.090000  0.000000  0.000000
  0.100000  0.000000  0.000000
  0.110000  0.000000  0.000000
  0.120000  0.000000  0.000000
  0.130000  0.000000  0.000000
  0.140000  0.000000  0.000000
  0.150000  0.000000  0.000000
  0.160000  0.000000  0.000000
  0.170000  0.000000  0.000000
  0.180000  0.000000  0.000000
  0.190000  0.000000  0.000000
  0.200000  0.000000  0.000000
  0.210000  0.000000  0.000000
  0.220000  0.000000  0.000000
  0.230000  0.000000  0.000000
  0.240000  0.000000  0.000000
  0.250000  0.000000  0.000000
  0.260000  0.000000  0.000000
  0.270000  0.000000  0.000000
  0.280000  0.000000  0.000000
  0.290000  0.000000  0.000000
  0.300000  0.000000  0.000000
  0.310000  0.000000  0.000000
  0.320000  0.000000  0.000000
  0.330000  0.000000  0.000000
  0.340000  0.000000  0.000000
  0.350000  0.000000  0.000000
  0.360000  0.000000  0.000000
  0.370000  0.000000  0.000000
  0.380000  0.000000  0.000000
  0.390000  0.000000  0.000000
  0.400000  0.000000  0.000000
  0.410000  0.000000  0.000000
  0.420000  0.000000  0.000000
  0.430000  0.000000  0.000000
  0.440000  0.000000  0.000000
  0.450000  0.000000  0.000000
  0.460000  0.000000  0.000000
  0.470000  0.000000  0.000000
  0.480000  0.000000  0.000000
  0.490000  0.000000  0.000000
  0.500000  0.000000  0.000000
  0.510000  0.000000  0.000000
  0.520000  0.000000  0.000000
  0.530000  0.000000  0.000000
  0.540000  0.000000  0.000000
  0.550000  0.000000  0.000000
  0.560000  0.000000  0.000000
  0.570000  0.000000  0.000000
  0.580000  0.000000  0.000000
  0.590000  0.000000  0.000000
  0.600000  0.000000  0.000000
  0.610000  0.000000  0.000000
  0.620000  0.000000  0.000000
  0.630000  0.000000  0.000000
  0.640000  0.000000  0.000000
  0.650000  0.000000  0.000000
  0.660000  0.000000  0.000000
  0.670000  0.000000  0.000000
  0.680000  0.000000  0.000000
  0.690000  0.000000  0.000000
  0.700000  0.000000  0.000000
  0.710000  0.000000  0.000000
  0.720000  0.000000  0.000000
  0.730000  0.000000  0.000000
  0.740000  0.000000  0.000000
  0.750000  0.000000  0.000000
  0.760000  0.000000  0.000000
  0.770000  0.000000  0.000000
  0.780000  0.000000  0.000000
  0.790000  0.000000  0.000000
  0.800000  0.000000  0.000000
  0.700000  0.010000  0.000000
  0.700000  0.020000  0.000000
  0.700000  0.030000  0.000000
  0.700000  0.040000  0.000000
  0.700000  0.050000  0.000000
  0.700000  0.060000  0.000000
  0.700000  0.070000  0.000000
  0.700000  0.080000  0.000000
  0.700000  0.090000  0.000000
  0.700000  0.100000  0.000000
  0.700000  0.110000  0.000000
  0.700000  0.120000  0.000000
  0.700000  0.130000  0.000000
  0.700000  0.140000  0.000000
  0.700000  0.150000  0.000000
  0.700000  0.160000  0.000000
  0.700000  0.170000  0.000000
  0.700000  0.180000  0.000000
  0.700000  0.190000  0.000000
  0.700000  0.200000  0.000000
  0.700000  0.210000  0.000000
  0.700000  0.220000  0.000000
  0.700000  0.230000  0.000000
  0.700000  0.240000  0.000000
  0.700000  0.250000  0.000000
  0.700000  0.260000  0.000000
  0.700000  0.270000  0.000000
  0.700000  0.280000  0.000000
  0.700000  0.290000  0.000000
  0.700000  0.300000  0.000000
  0.700000  0.310000  0.000000
  0.700000  0.320000  0.000000
  0.700000  0.330000  0.000000
  0.700000  0.340000  0.000000
  0.700000  0.350000  0.000000
  0.700000  0.360000  0.000000
  0.700000  0.370000  0.000000
  0.700000  0.380000  0.000000
  0.700000  0.390000  0.000000
  0.700000  0.400000  0.000000
  0.700000  0.410000  0.000000
  0.700000  0.420000  0.000000
  0.700000  0.430000  0.000000
  0.700000  0.440000  0.000000
  0.700000  0.450000  0.000000
  0.700000  0.460000  0.000000
  0.700000  0.470000  0.000000
  0.700000  0.480000  0.000000
  0.700000  0.490000  0.000000
  0.700000  0.500000  0.000000
  0.021754  0.009356  0.000000
  0.025092  0.014757  0.000000
  0.048042  0.016126  0.000000
  0.010015  0.009830  0.000000
  0.058673  0.021002  0.000000
  0.010054  0.018645  0.000000
  0.069981  0.026136  0.000000
  0.064790  0.011078  0.000000
  0.102265  0.024980  0.000000
  0.083066  0.026521  0.000000
  0.090452  0.031596  0.000000
  0.012798  0.025870  0.000000
  0.029064  0.035276  0.000000
  0.009282  0.034508  0.000000
  0.014139  0.042513  0.000000
  0.022078  0.042718  0.000000
  0.055743  0.047421  0.000000
  0.007891  0.049958  0.000000
  0.053623  0.043577  0.000000
  0.013886  0.058400  0.000000
  0.025764  0.049884  0.000000
  0.020850  0.066921  0.000000
  0.010048  0.064889  0.000000
  0.015601  0.081423  0.000000
  0.010413  0.076774  0.000000
  0.038329  0.075730  0.000000
  0.019259  0.087241  0.000000
  0.023373  0.081210  0.000000
  0.028216  0.069638  0.000000
  0.044616  0.085293  0.000000
  0.054460  0.008314  0.000000
  0.035480  0.008735  0.000000
  0.072052  0.010896  0.000000
  0.073399  0.020427  0.000000
  0.099049  0.008913  0.000000
  0.110649  0.015922  0.000000
  0.124488  0.008373  0.000000
  0.082719  0.008638  0.000000
  0.101206  0.023592  0.000000
  0.086980  0.019236  0.000000
  0.055352  0.034381  0.000000
  0.042259  0.013197  0.000000
  0.083408  0.038874  0.000000
  0.035851  0.024166  0.000000
  0.065104  0.036449  0.000000
  0.021510  0.030281  0.000000
  0.026105  0.022666  0.000000
  0.041234  0.027604  0.000000
  0.070308  0.045536  0.000000
  0.036931  0.040788  0.000000
  0.077082  0.049255  0.000000
  0.043977  0.035287  0.000000
  0.023883  0.057619  0.000000
  0.041210  0.059302  0.000000
  0.034259  0.067404  0.000000
  0.051841  0.071370  0.000000
  0.036360  0.053073  0.000000
  0.047924  0.065860  0.000000
  0.049990  0.080706  0.000000
  0.065833  0.080125  0.000000
  0.160903  0.008208  0.000000
  0.109519  0.009629  0.000000
  0.146038  0.010621  0.000000
  0.120220  0.020394  0.000000
  0.139619  0.009955  0.000000
  0.183179  0.008276  0.000000
  0.214625  0.011316  0.000000
  0.156604  0.022161  0.000000
  0.122310  0.027641  0.000000
  0.091184  0.013821  0.000000
  0.139110  0.025676  0.000000
  0.126537  0.014378  0.000000
  0.105005  0.038345  0.000000
  0.111038  0.061112  0.000000
  0.139048  0.046648  0.000000
  0.055180  0.025156  0.000000
  0.089398  0.043525  0.000000
  0.073114  0.035256  0.000000
  0.064473  0.054410  0.000000
  0.041757  0.048073  0.000000
  0.084954  0.054920  0.000000
  0.077660  0.066866  0.000000
  0.072755  0.059688  0.000000
  0.054811  0.059447  0.000000
  0.069116  0.070630  0.000000
  0.061464  0.063679  0.000000
  0.067643  0.081448  0.000000
  0.079133  0.095265  0.000000
  0.083386  0.074440  0.000000
  0.054009  0.086608  0.000000
  0.203501  0.011496  0.000000
  0.173335  0.012112  0.000000
  0.217185  0.013063  0.000000
  0.177439  0.016321  0.000000
  0.208298  0.038231  0.000000
  0.195352  0.010788  0.000000
  0.190189  0.034223  0.000000
  0.193728  0.017802  0.000000
  0.170214  0.029497  0.000000
  0.114380  0.029701  0.000000
  0.184025  0.030034  0.000000
  0.137391  0.019954  0.000000
  0.151274  0.033561  0.000000
  0.098065  0.038667  0.000000
  0.104308  0.052840  0.000000
  0.160790  0.014160  0.000000
  0.114993  0.039349  0.000000
  0.130861  0.034150  0.000000
  0.115311  0.045109  0.000000
  0.120454  0.054677  0.000000
  0.143370  0.049435  0.000000
  0.099177  0.050997  0.000000
  0.088960  0.057901  0.000000
  0.124801  0.060757  0.000000
  0.101918  0.063679  0.000000
  0.085073  0.075085  0.000000
  0.097648  0.085793  0.000000
  0.095336  0.065208  0.000000
  0.085981  0.089681  0.000000
  0.106213  0.079680  0.000000
  0.248111  0.013244  0.000000
  0.230642  0.014030  0.000000
  0.233253  0.009225  0.000000
  0.209270  0.023379  0.000000
  0.290764  0.016178  0.000000
  0.205244  0.027868  0.000000
  0.196871  0.024643  0.000000
  0.221629  0.023539  0.000000
  0.180807  0.024119  0.000000
  0.238623  0.032483  0.000000
  0.165287  0.026576  0.000000
  0.218308  0.031929  0.000000
  0.200530  0.040617  0.000000
  0.182239  0.041647  0.000000
  0.194514  0.054679  0.000000
  0.149036  0.021224  0.000000
  0.167440  0.037226  0.000000
  0.139049  0.035581  0.000000
  0.162119  0.052834  0.000000
  0.127715  0.040843  0.000000
  0.127137  0.050437  0.000000
  0.150770  0.044681  0.000000
  0.138805  0.061672  0.000000
  0.095962  0.076579  0.000000
  0.138282  0.077371  0.000000
  0.114378  0.068093  0.000000
  0.125027  0.071953  0.000000
  0.154573  0.079310  0.000000
  0.132566  0.084518  0.000000
  0.111891  0.076146  0.000000
  0.290049  0.010473  0.000000
  0.264647  0.012138  0.000000
  0.318111  0.016461  0.000000
  0.289253  0.031030  0.000000
  0.336683  0.012549  0.000000
  0.293866  0.035542  0.000000
  0.307640  0.010564  0.000000
  0.275414  0.010330  0.000000
  0.279725  0.017103  0.000000
  0.305639  0.023535  0.000000
  0.255349  0.022874  0.000000
  0.267032  0.016010  0.000000
  0.252491  0.010021  0.000000
  0.222796  0.040887  0.000000
  0.200732  0.051968  0.000000
  0.212387  0.046302  0.000000
  0.154591  0.037020  0.000000
  0.238536  0.039087  0.000000
  0.167281  0.045922  0.000000
  0.192808  0.044127  0.000000
  0.175966  0.045205  0.000000
  0.182467  0.054247  0.000000
  0.135912  0.062367  0.000000
  0.170478  0.072013  0.000000
  0.163799  0.064585  0.000000
  0.158819  0.054771  0.000000
  0.152313  0.066356  0.000000
  0.148259  0.061555  0.000000
  0.123761  0.083254  0.000000
  0.150577  0.075321  0.000000
  0.364609  0.014736  0.000000
  0.301560  0.012399  0.000000
  0.319225  0.011701  0.000000
  0.296812  0.024705  0.000000
  0.404512  0.022539  0.000000
  0.345070  0.012863  0.000000
  0.386946  0.013903  0.000000
  0.330267  0.011259  0.000000
  0.332989  0.022669  0.000000
  0.309077  0.029915  0.000000
  0.321087  0.024988  0.000000
  0.326566  0.033487  0.000000
  0.278131  0.025143  0.000000
  0.235609  0.020590  0.000000
  0.244743  0.020993  0.000000
  0.227505  0.028714  0.000000
  0.229172  0.042417  0.000000
  0.263504  0.033768  0.000000
  0.219294  0.058037  0.000000
  0.214725  0.052394  0.000000
  0.229149  0.053663  0.000000
  0.205684  0.064044  0.000000
  0.178765  0.057864  0.000000
  0.200735  0.063744  0.000000
  0.189811  0.068489  0.000000
  0.187001  0.088626  0.000000
  0.182581  0.087329  0.000000
  0.178294  0.064375  0.000000
  0.168628  0.077010  0.000000
  0.164478  0.078356  0.000000
  0.394346  0.010985  0.000000
  0.381967  0.013986  0.000000
  0.431450  0.028116  0.000000
  0.405138  0.010601  0.000000
  0.470744  0.027461  0.000000
  0.427236  0.012259  0.000000
  0.431959  0.020927  0.000000
  0.398341  0.022579  0.000000
  0.411598  0.013553  0.000000
  0.391335  0.026161  0.000000
  0.373007  0.009789  0.000000
  0.354609  0.009060  0.000000
  0.351989  0.021477  0.000000
  0.302458  0.038304  0.000000
  0.310640  0.046748  0.000000
  0.260456  0.028155  0.000000
  0.247771  0.032217  0.000000
  0.295461  0.051240  0.000000
  0.275567  0.030887  0.000000
  0.289826  0.045250  0.000000
  0.243936  0.053178  0.000000
  0.249218  0.044054  0.000000
  0.257554  0.051331  0.000000
  0.216671  0.067514  0.000000
  0.235482  0.052553  0.000000
  0.226076  0.065663  0.000000
  0.222418  0.075778  0.000000
  0.204088  0.078069  0.000000
  0.189339  0.071399  0.000000
  0.205966  0.077193  0.000000
  0.482146  0.011243  0.000000
  0.456832  0.011709  0.000000
  0.487845  0.016848  0.000000
  0.462842  0.011104  0.000000
  0.512094  0.029277  0.000000
  0.473259  0.013018  0.000000
  0.488587  0.031884  0.000000
  0.439625  0.013994  0.000000
  0.441387  0.010148  0.000000
  0.444565  0.029780  0.000000
  0.380946  0.027863  0.000000
  0.393530  0.035165  0.000000
  0.362302  0.032453  0.000000
  0.377088  0.029637  0.000000
  0.368551  0.017829  0.000000
  0.315979  0.034027  0.000000
  0.337111  0.027158  0.000000
  0.318401  0.052562  0.000000
  0.343079  0.049464  0.000000
  0.304781  0.049374  0.000000
  0.278719  0.037773  0.000000
  0.270782  0.043428  0.000000
  0.260643  0.052134  0.000000
  0.256665  0.039523  0.000000
  0.270162  0.051920  0.000000
  0.241970  0.071052  0.000000
  0.237884  0.065071  0.000000
  0.238153  0.074792  0.000000
  0.254804  0.070008  0.000000
  0.214479  0.078833  0.000000
  0.563303  0.018055  0.000000
  0.484154  0.032164  0.000000
  0.572824  0.014284  0.000000
  0.543550  0.011647  0.000000
  0.589390  0.031525  0.000000
  0.531021  0.010282  0.000000
  0.578253  0.026307  0.000000
  0.514013  0.018295  0.000000
  0.496937  0.025324  0.000000
  0.451183  0.017712  0.000000
  0.456709  0.039459  0.000000
  0.444437  0.032188  0.000000
  0.365564  0.028711  0.000000
  0.421697  0.010704  0.000000
  0.415955  0.022730  0.000000
  0.419468  0.027407  0.000000
  0.351748  0.038824  0.000000
  0.351358  0.020889  0.000000
  0.345855  0.035484  0.000000
  0.323214  0.040463  0.000000
  0.338436  0.036411  0.000000
  0.303772  0.063565  0.000000
  0.329807  0.049031  0.000000
  0.284812  0.054465  0.000000
  0.317159  0.070348  0.000000
  0.296098  0.063472  0.000000
  0.279560  0.049136  0.000000
  0.272992  0.064600  0.000000
  0.246994  0.060541  0.000000
  0.258437  0.067292  0.000000
  0.604543  0.031785  0.000000
  0.557755  0.029675  0.000000
  0.641763  0.013343  0.000000
  0.585809  0.010449  0.000000
  0.631339  0.023113  0.000000
  0.586335  0.014974  0.000000
  0.605890  0.012278  0.000000
  0.597436  0.012696  0.000000
  0.555103  0.009892  0.000000
  0.515148  0.012820  0.000000
  0.551214  0.016762  0.000000
  0.473791  0.019017  0.000000
  0.501147  0.015949  0.000000
  0.513026  0.047080  0.000000
  0.482130  0.052217  0.000000
  0.424995  0.034042  0.000000
  0.433010  0.041064  0.000000
  0.406796  0.037181  0.000000
  0.396315  0.040575  0.000000
  0.381700  0.064628  0.000000
  0.383756  0.054516  0.000000
  0.367310  0.048990  0.000000
  0.335623  0.047045  0.000000
  0.344772  0.071780  0.000000
  0.313130  0.057794  0.000000
  0.291972  0.063832  0.000000
  0.327874  0.074365  0.000000
  0.280934  0.066493  0.000000
  0.278487  0.071639  0.000000
  0.265480  0.069969  0.000000
  0.659758  0.029784  0.000000
  0.646194  0.012855  0.000000
  0.662312  0.039137  0.000000
  0.657293  0.012398  0.000000
  0.669694  0.011355  0.000000
  0.655586  0.016545  0.000000
  0.633414  0.012864  0.000000
  0.619735  0.015388  0.000000
  0.625581  0.011212  0.000000
  0.606673  0.031787  0.000000
  0.595238  0.018659  0.000000
  0.569514  0.011347  0.000000
  0.547973  0.027633  0.000000
  0.541018  0.018314  0.000000
  0.492583  0.011594  0.000000
  0.496923  0.037739  0.000000
  0.473862  0.038832  0.000000
  0.481034  0.040460  0.000000
  0.468510  0.051949  0.000000
  0.464941  0.038387  0.000000
  0.423098  0.047630  0.000000
  0.437691  0.041665  0.000000
  0.380601  0.043475  0.000000
  0.383681  0.041904  0.000000
  0.370449  0.039290  0.000000
  0.345741  0.059503  0.000000
  0.319758  0.069278  0.000000
  0.331817  0.063969  0.000000
  0.326684  0.058544  0.000000
  0.306522  0.071068  0.000000
  0.676022  0.037896  0.000000
  0.664080  0.112044  0.000000
  0.684660  0.054781  0.000000
  0.682548  0.022936  0.000000
  0.669663  0.093802  0.000000
  0.669755  0.045616  0.000000
  0.671998  0.056873  0.000000
  0.665555  0.058878  0.000000
  0.650558  0.028098  0.000000
  0.639637  0.034090  0.000000
  0.637833  0.028652  0.000000
  0.612087  0.011509  0.000000
  0.593317  0.055667  0.000000
  0.609972  0.059042  0.000000
  0.535622  0.037267  0.000000
  0.564842  0.058511  0.000000
  0.529625  0.024976  0.000000
  0.528311  0.013917  0.000000
  0.506107  0.010773  0.000000
  0.563108  0.042238  0.000000
  0.504457  0.030632  0.000000
  0.489705  0.057960  0.000000
  0.455737  0.022938  0.000000
  0.439346  0.065168  0.000000
  0.429771  0.054257  0.000000
  0.399007  0.055111  0.000000
  0.370949  0.054288  0.000000
  0.358733  0.043559  0.000000
  0.354741  0.051878  0.000000
  0.346037  0.064468  0.000000
  0.687647  0.093353  0.000000
  0.661739  0.109734  0.000000
  0.688963  0.030791  0.000000
  0.682504  0.052501  0.000000
  0.650677  0.171252  0.000000
  0.668988  0.013665  0.000000
  0.683901  0.097685  0.000000
  0.683928  0.112654  0.000000
  0.655779  0.096977  0.000000
  0.668353  0.127024  0.000000
  0.674418  0.064855  0.000000
  0.655481  0.091653  0.000000
  0.654514  0.044566  0.000000
  0.651984  0.114243  0.000000
  0.636831  0.050256  0.000000
  0.625260  0.030231  0.000000
  0.632762  0.073898  0.000000
  0.598702  0.043916  0.000000
  0.615121  0.047060  0.000000
  0.572666  0.029322  0.000000
  0.543242  0.033182  0.000000
  0.524661  0.024830  0.000000
  0.515992  0.054834  0.000000
  0.454166  0.062999  0.000000
  0.452882  0.045572  0.000000
  0.446598  0.062578  0.000000
  0.406197  0.045825  0.000000
  0.402164  0.058472  0.000000
  0.368897  0.062152  0.000000
  0.358926  0.061310  0.000000
  0.690398  0.087741  0.000000
  0.658825  0.201495  0.000000
  0.654309  0.161879  0.000000
  0.675675  0.159923  0.000000
  0.683968  0.199106  0.000000
  0.686664  0.072447  0.000000
  0.681119  0.013073  0.000000
  0.647514  0.164140  0.000000
  0.673794  0.147521  0.000000
  0.682622  0.076321  0.000000
  0.687879  0.148754  0.000000
  0.673469  0.031713  0.000000
  0.689335  0.021897  0.000000
  0.674582  0.074442  0.000000
  0.649424  0.035408  0.000000
  0.671047  0.095652  0.000000
  0.648461  0.056805  0.000000
  0.627828  0.038846  0.000000
  0.637852  0.059047  0.000000
  0.614386  0.024361  0.000000
  0.617513  0.032244  0.000000
  0.563265  0.046506  0.000000
  0.542788  0.066899  0.000000
  0.522102  0.042517  0.000000
  0.512279  0.037136  0.000000
  0.529902  0.048203  0.000000
  0.464893  0.028836  0.000000
  0.448939  0.043638  0.000000
  0.411640  0.036649  0.000000
  0.408955  0.058104  0.000000
  0.685156  0.129766  0.000000
  0.685330  0.039678  0.000000
  0.684439  0.223952  0.000000
  0.685051  0.326991  0.000000
  0.690877  0.067108  0.000000
  0.687794  0.009715  0.000000
  0.662576  0.232530  0.000000
  0.685262  0.245878  0.000000
  0.690806  0.046712  0.000000
  0.688513  0.129917  0.000000
  0.681050  0.200735  0.000000
  0.678230  0.120520  0.000000
  0.685281  0.176963  0.000000
  0.641497  0.204599  0.000000
  0.645952  0.194392  0.000000
  0.668876  0.156691  0.000000
  0.639395  0.140672  0.000000
  0.667631  0.026964  0.000000
  0.661715  0.073465  0.000000
  0.649101  0.081805  0.000000
  0.657937  0.051720  0.000000
  0.630090  0.046050  0.000000
  0.608586  0.053992  0.000000
  0.624429  0.058234  0.000000
  0.555696  0.051876  0.000000
  0.543342  0.045903  0.000000
  0.524777  0.034881  0.000000
  0.470566  0.055552  0.000000
  0.458420  0.058333  0.000000
  0.416232  0.053382  0.000000
  0.660146  0.303710  0.000000
  0.600313  0.346492  0.000000
  0.669030  0.187376  0.000000
  0.631385  0.262740  0.000000
  0.567486  0.406397  0.000000
  0.650609  0.270602  0.000000
  0.680351  0.253061  0.000000
  0.689384  0.269963  0.000000
  0.648747  0.338775  0.000000
  0.652050  0.244307  0.000000
  0.680834  0.142618  0.000000
  0.680053  0.205714  0.000000
  0.665718  0.208133  0.000000
  0.619640  0.174420  0.000000
  0.668218  0.204004  0.000000
  0.684729  0.179876  0.000000
  0.667702  0.157188  0.000000
  0.689600  0.153371  0.000000
  0.677577  0.183828  0.000000
  0.671414  0.113379  0.000000
  0.666649  0.129963  0.000000
  0.636472  0.100786  0.000000
  0.644302  0.047602  0.000000
  0.661298  0.071316  0.000000
  0.598428  0.052327  0.000000
  0.578077  0.056993  0.000000
  0.563603  0.027902  0.000000
  0.546527  0.041282  0.000000
  0.489513  0.049521  0.000000
  0.430586  0.056330  0.000000
  0.646393  0.253545  0.000000
  0.520382  0.490700  0.000000
  0.659081  0.292619  0.000000
  0.682754  0.218489  0.000000
  0.655413  0.338125  0.000000
  0.687349  0.171358  0.000000
  0.690645  0.114880  0.000000
  0.672231  0.287819  0.000000
  0.662567  0.320747  0.000000
  0.682194  0.361724  0.000000
  0.569816  0.284194  0.000000
  0.637112  0.212783  0.000000
  0.587264  0.311733  0.000000
  0.636462  0.278699  0.000000
  0.681673  0.240065  0.000000
  0.665416  0.262846  0.000000
  0.670714  0.226518  0.000000
  0.647851  0.214928  0.000000
  0.671794  0.134124  0.000000
  0.681728  0.217576  0.000000
  0.664673  0.236585  0.000000
  0.632102  0.150499  0.000000
  0.653330  0.120474  0.000000
  0.674435  0.086561  0.000000
  0.646578  0.106135  0.000000
  0.653389  0.062561  0.000000
  0.620933  0.052323  0.000000
  0.595442  0.032796  0.000000
  0.533906  0.051113  0.000000
  0.504696  0.049405  0.000000
  0.534920  0.496646  0.000000
  0.621567  0.468858  0.000000
  0.672215  0.286452  0.000000
  0.499080  0.484948  0.000000
  0.607891  0.334415  0.000000
  0.622667  0.482419  0.000000
  0.628338  0.457531  0.000000
  0.653953  0.421747  0.000000
  0.655069  0.429886  0.000000
  0.619663  0.278844  0.000000
  0.674405  0.291116  0.000000
  0.631444  0.333507  0.000000
  0.677890  0.270075  0.000000
  0.680488  0.304813  0.000000
  0.624805  0.191080  0.000000
  0.638772  0.228347  0.000000
  0.625777  0.208404  0.000000
  0.683606  0.106657  0.000000
  0.660493  0.180935  0.000000
  0.649334  0.133557  0.000000
  0.654172  0.143434  0.000000
  0.666695  0.082341  0.000000
  0.648165  0.076752  0.000000
  0.636074  0.066752  0.000000
  0.580502  0.035273  0.000000
  0.577085  0.043613  0.000000
  0.538453  0.473967  0.000000
  0.662856  0.489160  0.000000
  0.467722  0.480397  0.000000
  0.659201  0.436379  0.000000
  0.664580  0.478435  0.000000
  0.663136  0.424200  0.000000
  0.629118  0.302352  0.000000
  0.673344  0.375928  0.000000
  0.612585  0.327971  0.000000
  0.609067  0.297748  0.000000
  0.645363  0.317703  0.000000
  0.648272  0.284160  0.000000
  0.636612  0.273408  0.000000
  0.638544  0.241079  0.000000
  0.652237  0.176525  0.000000
  0.643139  0.156090  0.000000
  0.632581  0.168065  0.000000
  0.653550  0.125869  0.000000
  0.641575  0.074787  0.000000
  0.649798  0.092953  0.000000
  0.582142  0.046699  0.000000
 -0.010000  0.500000  0.000000
 -0.010000  0.490000  0.000000
 -0.010000  0.480000  0.000000
 -0.010000  0.470000  0.000000
 -0.010000  0.460000  0.000000
 -0.010000  0.450000  0.000000
 -0.010000  0.440000  0.000000
 -0.010000  0.430000  0.000000
 -0.010000  0.420000  0.000000
 -0.010000  0.410000  0.000000
 -0.010000  0.400000  0.000000
 -0.010000  0.390000  0.000000
 -0.010000  0.380000  0.000000
 -0.010000  0.370000  0.000000
 -0.010000  0.360000  0.000000
 -0.010000  0.350000  0.000000
 -0.010000  0.340000  0.000000
 -0.010000  0.330000  0.000000
 -0.010000  0.320000  0.000000
 -0.010000  0.310000  0.000000
 -0.010000  0.300000  0.000000
 -0.010000  0.290000  0.000000
 -0.010000  0.280000  0.000000
 -0.010000  0.270000  0.000000
 -0.010000  0.260000  0.000000
 -0.010000  0.250000  0.000000
 -0.010000  0.240000  0.000000
 -0.010000  0.230000  0.000000
 -0.010000  0.220000  0.000000
 -0.010000  0.210000  0.000000
 -0.010000  0.200000  0.000000
 -0.010000  0.190000  0.000000
 -0.010000  0.180000  0.000000
 -0.010000  0.170000  0.000000
 -0.010000  0.160000  0.000000
 -0.010000  0.150000  0.000000
 -0.010000  0.140000  0.000000
 -0.010000  0.130000  0.000000
 -0.010000  0.120000  0.000000
 -0.010000  0.110000  0.000000
 -0.010000  0.100000  0.000000
 -0.010000  0.090000  0.000000
 -0.010000  0.080000  0.000000
 -0.010000  0.070000  0.000000
 -0.010000  0.060000  0.000000
 -0.010000  0.050000  0.000000
 -0.010000  0.040000  0.000000
 -0.010000  0.030000  0.000000
 -0.010000  0.020000  0.000000
 -0.010000  0.010000  0.000000
 -0.100000 -0.010000  0.000000
 -0.090000 -0.010000  0.000000
 -0.080000 -0.010000  0.000000
 -0.070000 -0.010000  0.000000
 -0.060000 -0.010000  0.000000
 -0.050000 -0.010000  0.000000
 -0.040000 -0.010000  0.000000
 -0.030000 -0.010000  0.000000
 -0.020000 -0.010000  0.000000
 -0.010000 -0.010000  0.000000
 -0.000000 -0.010000  0.000000
  0.010000 -0.010000  0.000000
  0.020000 -0.010000  0.000000
  0.030000 -0.010000  0.000000
  0.040000 -0.010000  0.000000
  0.050000 -0.010000  0.000000
  0.060000 -0.010000  0.000000
  0.070000 -0.010000  0.000000
  0.080000 -0.010000  0.000000
  0.090000 -0.010000  0.000000
  0.100000 -0.010000  0.000000
  0.110000 -0.010000  0.000000